NH3                                                                     
SP        RMP2-FC                                                     CBSB3               
Number of atoms                            I                4
Info1-9                                    I   N=           9
          18          18       15005           0           0         111
           1           2           2
Charge                                     I                0
Multiplicity                               I                1
Number of electrons                        I               10
Number of alpha electrons                  I                5
Number of beta electrons                   I                5
Number of basis functions                  I               64
Number of independent functions            I               64
Number of point charges in /Mol/           I                0
Number of translation vectors              I                0
Atomic numbers                             I   N=           4
           7           1           1           1
Nuclear charges                            R   N=           4
  7.00000000E+00  1.00000000E+00  1.00000000E+00  1.00000000E+00
Current cartesian coordinates              R   N=          12
  1.34530171E-22  1.06706688E-19  2.18900206E-01  3.43758104E-16  1.77545946E+00
 -5.10767148E-01 -1.53759299E+00 -8.87729729E-01 -5.10767148E-01  1.53759299E+00
 -8.87729729E-01 -5.10767148E-01
Force Field                                I                0
Int Atom Types                             I   N=           4
           0           0           0           0
MM charges                                 R   N=           4
  6.91691904-323  4.94065646-324  4.94065646-324  4.94065646-324
Integer atomic weights                     I   N=           4
           0           0           0           0
Real atomic weights                        R   N=           4
  0.00000000E+00  0.00000000E+00  0.00000000E+00  0.00000000E+00
Atom fragment info                         I   N=           4
           0           0           0           0
Atom residue num                           I   N=           4
           0           0           0           0
Nuclear spins                              I   N=           4
           0           0           0           0
Nuclear ZEff                               R   N=           4
  0.00000000E+00  0.00000000E+00  0.00000000E+00  0.00000000E+00
Nuclear ZNuc                               R   N=           4
  0.00000000E+00  0.00000000E+00  0.00000000E+00  0.00000000E+00
Nuclear QMom                               R   N=           4
  0.00000000E+00  0.00000000E+00  0.00000000E+00  0.00000000E+00
Nuclear GFac                               R   N=           4
  0.00000000E+00  0.00000000E+00  0.00000000E+00  0.00000000E+00
MicOpt                                     I   N=           4
          -1          -1          -1          -1
Number of contracted shells                I               26
Number of primitive shells                 I               39
Pure/Cartesian d shells                    I                0
Pure/Cartesian f shells                    I                0
Highest angular momentum                   I                3
Largest degree of contraction              I                6
Shell types                                I   N=          26
           0          -1          -1          -1          -1          -2
          -2          -3           0           0           0           0
           1           1           0           0           0           0
           1           1           0           0           0           0
           1           1
Number of primitives per shell             I   N=          26
           6           3           1           1           1           1
           1           1           3           1           1           1
           1           1           3           1           1           1
           1           1           3           1           1           1
           1           1
Shell to atom map                          I   N=          26
           1           1           1           1           1           1
           1           1           2           2           2           2
           2           2           3           3           3           3
           3           3           4           4           4           4
           4           4
Primitive exponents                        R   N=          39
  6.29348000E+03  9.49044000E+02  2.18776000E+02  6.36916000E+01  1.88282000E+01
  2.72023000E+00  3.06331000E+01  7.02614000E+00  2.11205000E+00  6.84009000E-01
  2.00878000E-01  6.39000000E-02  1.82600000E+00  4.56500000E-01  1.00000000E+00
  3.38650000E+01  5.09479000E+00  1.15879000E+00  3.25840000E-01  1.02741000E-01
  3.60000000E-02  1.50000000E+00  3.75000000E-01  3.38650000E+01  5.09479000E+00
  1.15879000E+00  3.25840000E-01  1.02741000E-01  3.60000000E-02  1.50000000E+00
  3.75000000E-01  3.38650000E+01  5.09479000E+00  1.15879000E+00  3.25840000E-01
  1.02741000E-01  3.60000000E-02  1.50000000E+00  3.75000000E-01
Contraction coefficients                   R   N=          39
  1.96978815E-03  1.49612859E-02  7.35005308E-02  2.48936766E-01  6.02459433E-01
  2.56201759E-01  1.11906080E-01  9.21666655E-01 -2.56919183E-03  1.00000000E+00
  1.00000000E+00  1.00000000E+00  1.00000000E+00  1.00000000E+00  1.00000000E+00
  2.54938145E-02  1.90373109E-01  8.52161486E-01  1.00000000E+00  1.00000000E+00
  1.00000000E+00  1.00000000E+00  1.00000000E+00  2.54938145E-02  1.90373109E-01
  8.52161486E-01  1.00000000E+00  1.00000000E+00  1.00000000E+00  1.00000000E+00
  1.00000000E+00  2.54938145E-02  1.90373109E-01  8.52161486E-01  1.00000000E+00
  1.00000000E+00  1.00000000E+00  1.00000000E+00  1.00000000E+00
P(S=P) Contraction coefficients            R   N=          39
  0.00000000E+00  0.00000000E+00  0.00000000E+00  0.00000000E+00  0.00000000E+00
  0.00000000E+00  3.83119186E-02  2.37403116E-01  8.17592398E-01  1.00000000E+00
  1.00000000E+00  1.00000000E+00  0.00000000E+00  0.00000000E+00  0.00000000E+00
  0.00000000E+00  0.00000000E+00  0.00000000E+00  0.00000000E+00  0.00000000E+00
  0.00000000E+00  0.00000000E+00  0.00000000E+00  0.00000000E+00  0.00000000E+00
  0.00000000E+00  0.00000000E+00  0.00000000E+00  0.00000000E+00  0.00000000E+00
  0.00000000E+00  0.00000000E+00  0.00000000E+00  0.00000000E+00  0.00000000E+00
  0.00000000E+00  0.00000000E+00  0.00000000E+00  0.00000000E+00
Coordinates of each shell                  R   N=          78
  1.06140290E-22  1.06564944E-19  2.18900206E-01  1.06140290E-22  1.06564944E-19
  2.18900206E-01  1.06140290E-22  1.06564944E-19  2.18900206E-01  1.06140290E-22
  1.06564944E-19  2.18900206E-01  1.06140290E-22  1.06564944E-19  2.18900206E-01
  1.06140290E-22  1.06564944E-19  2.18900206E-01  1.06140290E-22  1.06564944E-19
  2.18900206E-01  1.06140290E-22  1.06564944E-19  2.18900206E-01  2.29172080E-16
  1.77545946E+00 -5.10767148E-01  2.29172080E-16  1.77545946E+00 -5.10767148E-01
  2.29172080E-16  1.77545946E+00 -5.10767148E-01  2.29172080E-16  1.77545946E+00
 -5.10767148E-01  2.29172080E-16  1.77545946E+00 -5.10767148E-01  2.29172080E-16
  1.77545946E+00 -5.10767148E-01 -1.53759299E+00 -8.87729729E-01 -5.10767148E-01
 -1.53759299E+00 -8.87729729E-01 -5.10767148E-01 -1.53759299E+00 -8.87729729E-01
 -5.10767148E-01 -1.53759299E+00 -8.87729729E-01 -5.10767148E-01 -1.53759299E+00
 -8.87729729E-01 -5.10767148E-01 -1.53759299E+00 -8.87729729E-01 -5.10767148E-01
  1.53759299E+00 -8.87729729E-01 -5.10767148E-01  1.53759299E+00 -8.87729729E-01
 -5.10767148E-01  1.53759299E+00 -8.87729729E-01 -5.10767148E-01  1.53759299E+00
 -8.87729729E-01 -5.10767148E-01  1.53759299E+00 -8.87729729E-01 -5.10767148E-01
  1.53759299E+00 -8.87729729E-01 -5.10767148E-01
Constraint Structure                       R   N=          12
  1.06140290E-22  1.06564944E-19  2.18900206E-01  2.29172080E-16  1.77545946E+00
 -5.10767148E-01 -1.53759299E+00 -8.87729729E-01 -5.10767148E-01  1.53759299E+00
 -8.87729729E-01 -5.10767148E-01
Num ILSW                                   I              100
ILSW                                       I   N=         100
           0           0           0           0           2           0
           0           0           0           0           0          -1
           5           0           0           0           0           0
           0           0           1           0           0           0
           1           0           0           0           0           0
           0           0      100000           0          -1           0
           0           0           0           0           0           0
           0           0           0           1           0           0
           0 -2000000000           1           0           0           0
           0           0           4          41           0           0
           0           0           0           0           0           0
           0           0           0           0           0           1
           0           0           0           0           0           0
           0           0           0           0           0           0
           0           0           0           0           0           0
           0           0           0           0           0           0
           0           0           0           0
Num RLSW                                   I               41
RLSW                                       R   N=          41
  1.00000000E+00  1.00000000E+00  1.00000000E+00  1.00000000E+00  1.00000000E+00
  0.00000000E+00  0.00000000E+00  1.00000000E+00  0.00000000E+00  0.00000000E+00
  0.00000000E+00  0.00000000E+00  1.00000000E+00  0.00000000E+00  0.00000000E+00
  0.00000000E+00  0.00000000E+00  1.00000000E+00  0.00000000E+00  0.00000000E+00
  0.00000000E+00  0.00000000E+00  1.00000000E+00  0.00000000E+00  0.00000000E+00
  0.00000000E+00  0.00000000E+00  1.00000000E+00  0.00000000E+00  0.00000000E+00
  0.00000000E+00  0.00000000E+00  1.00000000E+00  0.00000000E+00  0.00000000E+00
  0.00000000E+00  0.00000000E+00  0.00000000E+00  1.00000000E+00  1.00000000E+00
  0.00000000E+00
MxBond                                     I                3
NBond                                      I   N=           4
           3           1           1           1
IBond                                      I   N=          12
           2           3           4           1           0           0
           1           0           0           1           0           0
RBond                                      R   N=          12
  1.00000000E+00  1.00000000E+00  1.00000000E+00  1.00000000E+00  0.00000000E+00
  0.00000000E+00  1.00000000E+00  0.00000000E+00  0.00000000E+00  1.00000000E+00
  0.00000000E+00  0.00000000E+00
Virial Ratio                               R      2.001391266558724E+00
SCF Energy                                 R     -5.621774779786524E+01
MP2 Energy                                 R     -5.644820899729945E+01
Total Energy                               R     -5.644820899729945E+01
Post-SCF wavefunction norm                 R      1.032093333322588E+00
RMS Density                                R      1.467710228932517E-09
External E-field                           R   N=          35
  0.00000000E+00  0.00000000E+00  0.00000000E+00  0.00000000E+00  0.00000000E+00
  0.00000000E+00  0.00000000E+00  0.00000000E+00  0.00000000E+00  0.00000000E+00
  0.00000000E+00  0.00000000E+00  0.00000000E+00  0.00000000E+00  0.00000000E+00
  0.00000000E+00  0.00000000E+00  0.00000000E+00  0.00000000E+00  0.00000000E+00
  0.00000000E+00  0.00000000E+00  0.00000000E+00  0.00000000E+00  0.00000000E+00
  0.00000000E+00  0.00000000E+00  0.00000000E+00  0.00000000E+00  0.00000000E+00
  0.00000000E+00  0.00000000E+00  0.00000000E+00  0.00000000E+00  0.00000000E+00
IOpCl                                      I                0
IROHF                                      I                0
Alpha Orbital Energies                     R   N=          64
 -1.55415192E+01 -1.14145810E+00 -6.27374956E-01 -6.27374956E-01 -4.30194591E-01
  4.30971026E-02  7.30191736E-02  7.30191736E-02  1.78605908E-01  2.17344145E-01
  2.17344145E-01  2.41385649E-01  3.02367196E-01  3.02367196E-01  3.15492671E-01
  6.37687724E-01  6.37687724E-01  7.33963988E-01  7.33963988E-01  7.93910347E-01
  8.29156426E-01  8.82378532E-01  8.82378532E-01  1.05473564E+00  1.09965257E+00
  1.19684811E+00  1.19684811E+00  1.28500293E+00  1.50938330E+00  1.50938330E+00
  1.63224340E+00  1.77965783E+00  1.77965783E+00  1.87609899E+00  2.04695729E+00
  2.04695729E+00  2.82531679E+00  2.82531679E+00  2.90353659E+00  3.64344395E+00
  3.73813638E+00  3.73813638E+00  3.89744247E+00  3.91858842E+00  3.91858842E+00
  4.10038656E+00  4.10038656E+00  4.23028850E+00  4.45325714E+00  4.75723600E+00
  4.75723600E+00  4.82935466E+00  5.09736155E+00  5.09736155E+00  5.12472476E+00
  5.43388742E+00  5.53686926E+00  5.53686926E+00  5.86276970E+00  5.86276970E+00
  6.00552522E+00  6.93456187E+00  6.93456187E+00  3.71143997E+01
Alpha MO coefficients                      R   N=        4096
  5.57654607E-01  4.68263915E-01  0.00000000E+00  9.00643296E-16 -1.78281783E-03
  4.91920748E-03  0.00000000E+00 -4.63413869E-15  7.01098776E-04 -1.03839552E-03
  0.00000000E+00 -1.24659655E-14 -1.27010252E-04  6.63171987E-04  0.00000000E+00
  5.79020123E-15  4.19266520E-05  1.60111251E-06  0.00000000E+00 -5.09249563E-16
 -3.29822347E-16  0.00000000E+00  1.03179159E-04  0.00000000E+00  4.10946439E-15
  3.99611270E-15  0.00000000E+00  7.48458326E-05  0.00000000E+00  3.36007839E-16
 -3.57857147E-16  0.00000000E+00  0.00000000E+00 -1.44607779E-04  1.86969941E-04
  3.02779288E-04 -2.63626030E-05 -9.36808148E-05  0.00000000E+00 -5.22088241E-05
 -8.45585314E-06  0.00000000E+00 -8.02163329E-05  1.26278501E-05  1.86969941E-04
  3.02779288E-04 -2.63626030E-05 -9.36808148E-05  4.52141680E-05  2.61044121E-05
 -8.45585314E-06  6.94693821E-05  4.01081664E-05  1.26278501E-05  1.86969941E-04
  3.02779288E-04 -2.63626030E-05 -9.36808148E-05 -4.52141680E-05  2.61044121E-05
 -8.45585314E-06 -6.94693821E-05  4.01081664E-05  1.26278501E-05 -1.07481621E-01
 -1.78374166E-01  0.00000000E+00 -9.15809876E-16 -3.45411765E-02  4.78014455E-01
  0.00000000E+00  7.19238448E-16 -5.70931303E-02  2.93201854E-01  0.00000000E+00
  2.16433121E-14 -7.06647015E-03  7.91668624E-03  0.00000000E+00  2.23903927E-14
 -5.25717090E-03 -3.83207206E-03  0.00000000E+00  3.73950645E-16 -1.20074000E-16
  0.00000000E+00 -1.38464778E-03  0.00000000E+00 -3.66216474E-15 -1.53535095E-15
  0.00000000E+00  2.77853305E-03  0.00000000E+00 -1.55913496E-16  5.24015091E-16
  0.00000000E+00  0.00000000E+00 -2.80065341E-03  8.76947078E-02  1.04140593E-01
 -2.03608712E-04  2.66758655E-03  0.00000000E+00 -9.69486752E-03  3.48979837E-03
  0.00000000E+00 -1.91821418E-02  4.30399384E-03  8.76947078E-02  1.04140593E-01
 -2.03608712E-04  2.66758655E-03  8.39600156E-03  4.84743376E-03  3.48979837E-03
  1.66122221E-02  9.59107089E-03  4.30399384E-03  8.76947078E-02  1.04140593E-01
 -2.03608712E-04  2.66758655E-03 -8.39600156E-03  4.84743376E-03  3.48979837E-03
 -1.66122221E-02  9.59107089E-03  4.30399384E-03 -1.58185862E-17  7.40917676E-17
  0.00000000E+00  2.08842235E-01 -8.35119199E-17 -1.27764549E-15  0.00000000E+00
  3.21535212E-01  2.33025947E-16 -1.13388826E-14  0.00000000E+00  1.98805228E-01
  1.00283149E-14 -5.66246333E-14  0.00000000E+00  4.64613463E-03  9.09211450E-15
  4.25629776E-17  0.00000000E+00 -1.27760582E-02 -1.09330003E-02  0.00000000E+00
 -1.37125643E-15  0.00000000E+00 -2.26642476E-02 -9.31272179E-03  0.00000000E+00
  4.24949849E-16  0.00000000E+00 -2.46253377E-03 -2.36768275E-04  0.00000000E+00
  0.00000000E+00 -1.12136814E-15  1.66798502E-01  2.52348015E-01  9.29804316E-02
  6.10689610E-03  0.00000000E+00 -1.26411395E-02  7.59596260E-03  0.00000000E+00
 -2.23968200E-02  1.18675657E-02 -8.33992508E-02 -1.26174007E-01 -4.64902158E-02
 -3.05344805E-03 -7.85150936E-03  9.58073634E-04 -3.79798130E-03 -1.56406760E-02
  4.69362562E-03 -5.93378286E-03 -8.33992508E-02 -1.26174007E-01 -4.64902158E-02
 -3.05344805E-03  7.85150936E-03  9.58073634E-04 -3.79798130E-03  1.56406760E-02
  4.69362562E-03 -5.93378286E-03  0.00000000E+00  0.00000000E+00  2.08842235E-01
  0.00000000E+00  0.00000000E+00  0.00000000E+00  3.21535212E-01  0.00000000E+00
  0.00000000E+00  0.00000000E+00  1.98805228E-01  0.00000000E+00  0.00000000E+00
  0.00000000E+00  4.64613463E-03  0.00000000E+00  0.00000000E+00  0.00000000E+00
 -1.27760582E-02  0.00000000E+00  0.00000000E+00 -1.09330003E-02  0.00000000E+00
 -2.26642476E-02  0.00000000E+00  0.00000000E+00 -9.31272179E-03  0.00000000E+00
 -2.46253377E-03  0.00000000E+00  0.00000000E+00 -2.36768275E-04 -2.32761929E-16
  0.00000000E+00  0.00000000E+00  0.00000000E+00  0.00000000E+00  0.00000000E+00
  5.49114468E-03  0.00000000E+00  0.00000000E+00  1.37237741E-02  0.00000000E+00
  0.00000000E+00 -1.44451740E-01 -2.18539791E-01 -8.05234158E-02 -5.28872716E-03
 -8.10806845E-03 -7.85150936E-03 -6.57829658E-03 -1.33666714E-02 -1.56406760E-02
 -1.02776134E-02  1.44451740E-01  2.18539791E-01  8.05234158E-02  5.28872716E-03
 -8.10806845E-03  7.85150936E-03  6.57829658E-03 -1.33666714E-02  1.56406760E-02
  1.02776134E-02 -3.39119436E-02 -5.76884208E-02  0.00000000E+00  4.08029108E-16
  2.45992539E-01  1.70975840E-01  0.00000000E+00 -2.50048525E-15  3.82683777E-01
  2.99245429E-01  0.00000000E+00 -1.79300682E-14  3.57473245E-01 -6.83923703E-02
  0.00000000E+00 -7.83210098E-15  1.07848325E-01 -3.84426575E-03  0.00000000E+00
 -4.78056464E-16 -5.31234222E-16  0.00000000E+00 -2.45900164E-02  0.00000000E+00
  3.38519988E-15  3.03206166E-15  0.00000000E+00 -4.27804592E-03  0.00000000E+00
  2.71599297E-16 -9.07480059E-16  0.00000000E+00  0.00000000E+00 -1.95901755E-03
 -4.19704980E-02 -8.68191352E-02  4.35883416E-03  8.82341709E-03  0.00000000E+00
  4.74750469E-03  6.37896826E-03  0.00000000E+00  1.56841136E-02  1.75149895E-02
 -4.19704980E-02 -8.68191352E-02  4.35883416E-03  8.82341709E-03 -4.11145967E-03
 -2.37375235E-03  6.37896826E-03 -1.35828408E-02 -7.84205681E-03  1.75149895E-02
 -4.19704980E-02 -8.68191352E-02  4.35883416E-03  8.82341709E-03  4.11145967E-03
 -2.37375235E-03  6.37896826E-03  1.35828408E-02 -7.84205681E-03  1.75149895E-02
 -1.89133630E-02 -3.33132545E-02  0.00000000E+00  6.33838232E-14 -2.47748433E-02
  1.24896694E-01  0.00000000E+00  4.38660942E-14 -1.91127260E-02 -2.56677779E-01
  0.00000000E+00 -8.16417285E-13 -5.62166765E-03  2.43904536E+00  0.00000000E+00
  2.94381421E-12 -3.07962787E-01 -3.63421965E-04  0.00000000E+00 -9.48188831E-15
 -6.63818026E-15  0.00000000E+00  1.69264133E-02  0.00000000E+00  1.31909315E-13
  1.35794895E-13  0.00000000E+00 -1.78466429E-03  0.00000000E+00  3.79566258E-15
 -1.54631376E-14  0.00000000E+00  0.00000000E+00  3.53003446E-03 -1.92836047E-03
  7.97633060E-02 -3.22403181E-01 -8.27981160E-01  0.00000000E+00 -4.77755006E-03
  8.84150432E-04  0.00000000E+00 -4.23698379E-02  2.03313567E-02 -1.92836047E-03
  7.97633060E-02 -3.22403181E-01 -8.27981160E-01  4.13747972E-03  2.38877503E-03
  8.84150432E-04  3.66933560E-02  2.11849189E-02  2.03313567E-02 -1.92836047E-03
  7.97633060E-02 -3.22403181E-01 -8.27981160E-01 -4.13747972E-03  2.38877503E-03
  8.84150432E-04 -3.66933560E-02  2.11849189E-02  2.03313567E-02  0.00000000E+00
  0.00000000E+00  3.81339029E-02  0.00000000E+00  0.00000000E+00  0.00000000E+00
  4.67432104E-02  0.00000000E+00  0.00000000E+00  0.00000000E+00 -2.34824327E-01
  0.00000000E+00  0.00000000E+00  0.00000000E+00  8.07728364E-01  0.00000000E+00
  0.00000000E+00  0.00000000E+00 -3.55989529E-03  0.00000000E+00  0.00000000E+00
 -2.73805220E-03  0.00000000E+00  3.11383989E-02  0.00000000E+00  0.00000000E+00
  3.54700906E-02  0.00000000E+00  4.06985909E-04  0.00000000E+00  0.00000000E+00
 -2.31755710E-03 -3.51810966E-16  0.00000000E+00  0.00000000E+00  0.00000000E+00
  0.00000000E+00  0.00000000E+00  4.66833369E-04  0.00000000E+00  0.00000000E+00
  1.02754557E-02  0.00000000E+00  0.00000000E+00 -1.14685193E-02 -1.33610314E-01
 -1.71466476E-01  2.96356319E+00 -2.00237487E-03 -1.42559804E-03 -7.21937247E-04
 -6.11911025E-02 -4.12612366E-02 -3.43926838E-02  1.14685193E-02  1.33610314E-01
  1.71466476E-01 -2.96356319E+00 -2.00237487E-03  1.42559804E-03  7.21937247E-04
 -6.11911025E-02  4.12612366E-02  3.43926838E-02 -4.70389727E-14 -8.29273067E-14
  0.00000000E+00 -3.81339029E-02 -1.01496129E-13  3.12638527E-13  0.00000000E+00
 -4.67432104E-02 -1.21559040E-13 -4.65733334E-12  0.00000000E+00  2.34824327E-01
  1.84744067E-12 -3.03046396E-11  0.00000000E+00 -8.07728364E-01  6.77496115E-12
 -1.26485435E-14  0.00000000E+00  3.55989529E-03  2.73805220E-03  0.00000000E+00
  2.02023999E-14  0.00000000E+00 -3.11383989E-02 -3.54700906E-02  0.00000000E+00
  3.59414402E-15  0.00000000E+00 -4.06985909E-04  2.31755710E-03  0.00000000E+00
  0.00000000E+00 -2.72174841E-14 -1.32427054E-02 -1.54279901E-01 -1.97992432E-01
  3.42202802E+00  0.00000000E+00  2.82544428E-03 -8.33621328E-04  0.00000000E+00
  8.50132886E-02 -3.97132506E-02  6.62135269E-03  7.71399507E-02  9.89962158E-02
 -1.71101401E+00  1.42559804E-03  3.56236042E-04  4.16810664E-04  4.12612366E-02
  1.35467304E-02  1.98566253E-02  6.62135269E-03  7.71399507E-02  9.89962158E-02
 -1.71101401E+00 -1.42559804E-03  3.56236042E-04  4.16810664E-04 -4.12612366E-02
  1.35467304E-02  1.98566253E-02 -4.06532921E-04  4.86371144E-05  0.00000000E+00
 -1.37079731E-13  9.29808514E-02  1.63037164E-02  0.00000000E+00 -3.39132322E-13
  1.23332295E-01 -4.02094195E-01  0.00000000E+00 -2.63357245E-12  5.61847364E-01
  5.28953679E+00  0.00000000E+00  1.14880651E-11 -2.13883886E+00 -2.26860746E-04
  0.00000000E+00 -2.01554023E-15  4.97906196E-15  0.00000000E+00  2.09737029E-02
  0.00000000E+00  4.09178588E-13  3.93846281E-13  0.00000000E+00 -9.00227628E-03
  0.00000000E+00  1.47470077E-14 -4.87734889E-14  0.00000000E+00  0.00000000E+00
  7.97271934E-03 -2.42893009E-02  2.64347104E-01 -1.56958149E+00 -5.63476065E-01
  0.00000000E+00 -1.55326023E-03 -1.15854927E-04  0.00000000E+00 -4.97054210E-02
  9.54072217E-03 -2.42893009E-02  2.64347104E-01 -1.56958149E+00 -5.63476065E-01
  1.34516282E-03  7.76630117E-04 -1.15854927E-04  4.30461573E-02  2.48527105E-02
  9.54072217E-03 -2.42893009E-02  2.64347104E-01 -1.56958149E+00 -5.63476065E-01
 -1.34516282E-03  7.76630117E-04 -1.15854927E-04 -4.30461573E-02  2.48527105E-02
  9.54072217E-03  3.09240289E-13  5.02621312E-13  0.00000000E+00 -2.21788061E-03
 -5.60134386E-13 -7.46886333E-13  0.00000000E+00 -3.58002197E-02  1.16103553E-13
 -9.07939198E-12  0.00000000E+00 -4.34262784E-01 -4.77676791E-12  5.63045251E-11
  0.00000000E+00  3.30934541E+00 -5.51226693E-13  9.20177376E-15  0.00000000E+00
  1.22173282E-03  3.19167547E-03  0.00000000E+00  3.66243926E-13  0.00000000E+00
  8.42567705E-02  8.98080966E-02  0.00000000E+00 -3.82206451E-14  0.00000000E+00
  2.49275217E-03 -1.12280431E-02  0.00000000E+00  0.00000000E+00  1.08964636E-13
 -5.86306819E-02  4.12213955E-01 -2.57106160E+00 -2.35498144E+00  0.00000000E+00
 -1.27553567E-02  5.09412700E-03  0.00000000E+00 -6.02792356E-02  4.00485245E-02
  2.93153409E-02 -2.06106977E-01  1.28553080E+00  1.17749072E+00 -5.78168430E-03
 -2.74118569E-03 -2.54706350E-03 -4.66484515E-02  2.05182525E-02 -2.00242623E-02
  2.93153409E-02 -2.06106977E-01  1.28553080E+00  1.17749072E+00  5.78168430E-03
 -2.74118569E-03 -2.54706350E-03  4.66484515E-02  2.05182525E-02 -2.00242623E-02
  0.00000000E+00  0.00000000E+00 -2.21788061E-03  0.00000000E+00  0.00000000E+00
  0.00000000E+00 -3.58002197E-02  0.00000000E+00  0.00000000E+00  0.00000000E+00
 -4.34262784E-01  0.00000000E+00  0.00000000E+00  0.00000000E+00  3.30934541E+00
  0.00000000E+00  0.00000000E+00  0.00000000E+00  1.22173282E-03  0.00000000E+00
  0.00000000E+00  3.19167547E-03  0.00000000E+00  8.42567705E-02  0.00000000E+00
  0.00000000E+00  8.98080966E-02  0.00000000E+00  2.49275217E-03  0.00000000E+00
  0.00000000E+00 -1.12280431E-02 -7.89593416E-16  0.00000000E+00  0.00000000E+00
  0.00000000E+00  0.00000000E+00  0.00000000E+00  5.96871295E-04  0.00000000E+00
  0.00000000E+00  4.74507485E-02  0.00000000E+00  0.00000000E+00  5.07756600E-02
 -3.56987756E-01  2.22660466E+00  2.03947375E+00 -9.41729966E-03 -5.78168430E-03
 -4.41164340E-03 -3.33467395E-02 -4.66484515E-02 -3.46830396E-02 -5.07756600E-02
  3.56987756E-01 -2.22660466E+00 -2.03947375E+00 -9.41729966E-03  5.78168430E-03
  4.41164340E-03 -3.33467395E-02  4.66484515E-02  3.46830396E-02  4.33088769E-02
  7.10545462E-02  0.00000000E+00 -8.22572557E-14 -1.03580454E-02 -1.05711973E-01
  0.00000000E+00  1.13294662E-13  8.49490895E-02 -1.83894818E+00  0.00000000E+00
  2.40902643E-12 -8.05455198E-02  6.32657045E+00  0.00000000E+00 -2.69443820E-11
 -5.07442471E-01 -5.26478552E-04  0.00000000E+00 -2.11361294E-14 -3.63111548E-14
  0.00000000E+00  5.05327947E-02  0.00000000E+00 -5.51994969E-13 -6.38686976E-13
  0.00000000E+00 -8.25908564E-03  0.00000000E+00 -1.30668887E-14  7.40541780E-14
  0.00000000E+00  0.00000000E+00  1.43280127E-02  9.22700768E-03  2.59437614E-01
 -8.95541345E-01 -9.82964854E-01  0.00000000E+00 -2.51491493E-03 -5.34814066E-04
  0.00000000E+00 -5.63496828E-02  5.27507652E-02  9.22700768E-03  2.59437614E-01
 -8.95541345E-01 -9.82964854E-01  2.17798022E-03  1.25745747E-03 -5.34814066E-04
  4.88002568E-02  2.81748414E-02  5.27507652E-02  9.22700768E-03  2.59437614E-01
 -8.95541345E-01 -9.82964854E-01 -2.17798022E-03  1.25745747E-03 -5.34814066E-04
 -4.88002568E-02  2.81748414E-02  5.27507652E-02 -5.20659944E-13 -8.45443192E-13
  0.00000000E+00 -1.33457801E-01 -1.36727206E-12 -2.64869901E-13  0.00000000E+00
 -2.29675865E-01 -3.02458303E-12  8.12518973E-11  0.00000000E+00 -1.46593881E+00
 -3.07598429E-11  2.42539170E-10  0.00000000E+00  5.34477466E-01 -4.11059454E-11
  2.61077174E-13  0.00000000E+00 -7.57405336E-03 -9.00599809E-03  0.00000000E+00
 -1.12397172E-12  0.00000000E+00  1.10496653E-01  8.77958238E-02  0.00000000E+00
  2.43877776E-13  0.00000000E+00  5.27058231E-03 -3.67619017E-03  0.00000000E+00
  0.00000000E+00 -2.10918303E-13  3.02749454E-02  4.20640137E-01  2.55382129E+00
 -2.43181668E+00  0.00000000E+00  1.34172155E-02 -8.50835869E-03  0.00000000E+00
 -2.28222475E-01  9.39975761E-02 -1.51374727E-02 -2.10320069E-01 -1.27691065E+00
  1.21590834E+00  8.60175491E-03 -1.48146099E-03  4.25417935E-03 -1.16057548E-01
 -2.72049058E-02 -4.69987881E-02 -1.51374727E-02 -2.10320069E-01 -1.27691065E+00
  1.21590834E+00 -8.60175491E-03 -1.48146099E-03  4.25417935E-03  1.16057548E-01
 -2.72049058E-02 -4.69987881E-02  0.00000000E+00  0.00000000E+00  1.33457801E-01
  0.00000000E+00  0.00000000E+00  0.00000000E+00  2.29675865E-01  0.00000000E+00
  0.00000000E+00  0.00000000E+00  1.46593881E+00  0.00000000E+00  0.00000000E+00
  0.00000000E+00 -5.34477466E-01  0.00000000E+00  0.00000000E+00  0.00000000E+00
  7.57405336E-03  0.00000000E+00  0.00000000E+00  9.00599809E-03  0.00000000E+00
 -1.10496653E-01  0.00000000E+00  0.00000000E+00 -8.77958238E-02  0.00000000E+00
 -5.27058231E-03  0.00000000E+00  0.00000000E+00  3.67619017E-03 -1.28014295E-15
  0.00000000E+00  0.00000000E+00  0.00000000E+00  0.00000000E+00  0.00000000E+00
  6.44768651E-03  0.00000000E+00  0.00000000E+00 -3.98009508E-02  0.00000000E+00
  0.00000000E+00  2.62188718E-02  3.64285045E-01  2.21167412E+00 -2.10601503E+00
 -8.45099003E-03 -8.60175491E-03 -7.36845477E-03  1.61216619E-01  1.16057548E-01
  8.14042888E-02 -2.62188718E-02 -3.64285045E-01 -2.21167412E+00  2.10601503E+00
 -8.45099003E-03  8.60175491E-03  7.36845477E-03  1.61216619E-01 -1.16057548E-01
 -8.14042888E-02 -2.33663675E-02 -3.80902454E-02  0.00000000E+00  3.03728044E-12
 -6.16908702E-02  1.98725678E-03  0.00000000E+00  5.24997866E-12 -1.21333255E-01
  3.23797040E+00  0.00000000E+00  3.25787817E-11 -1.24217501E+00  1.08475117E+01
  0.00000000E+00 -1.97198573E-11 -1.86140345E+00  1.12957372E-02  0.00000000E+00
  1.52600647E-13  1.85146262E-13  0.00000000E+00 -3.76833769E-02  0.00000000E+00
 -2.44912947E-12 -1.97694932E-12  0.00000000E+00  8.62179546E-03  0.00000000E+00
 -1.18063025E-13  9.47089416E-14  0.00000000E+00  0.00000000E+00 -7.68377435E-03
 -3.26748739E-02 -4.73617839E-01 -4.53605590E+00 -4.78641789E-01  0.00000000E+00
 -1.62978806E-02 -2.30911450E-03  0.00000000E+00  3.01647930E-01 -6.68941099E-02
 -3.26748739E-02 -4.73617839E-01 -4.53605590E+00 -4.78641789E-01  1.41143787E-02
  8.14894032E-03 -2.30911450E-03 -2.61234770E-01 -1.50823965E-01 -6.68941099E-02
 -3.26748739E-02 -4.73617839E-01 -4.53605590E+00 -4.78641789E-01 -1.41143787E-02
  8.14894032E-03 -2.30911450E-03  2.61234770E-01 -1.50823965E-01 -6.68941099E-02
  5.42550549E-14  1.02380547E-13  0.00000000E+00  7.67560648E-02  1.25242716E-13
 -6.87894370E-13  0.00000000E+00  1.39709151E-01 -2.61178262E-14  7.03836835E-12
  0.00000000E+00  8.66410888E-01 -2.22323271E-12  3.22987650E-12  0.00000000E+00
 -1.70756276E+00 -4.08264901E-13  1.18980849E-14  0.00000000E+00  1.34239356E-02
  3.24495078E-02  0.00000000E+00 -2.52905183E-13  0.00000000E+00 -4.19220016E-02
 -6.38819805E-02  0.00000000E+00  3.79883347E-14  0.00000000E+00 -1.11193505E-02
  2.05412646E-02  0.00000000E+00  0.00000000E+00 -4.64227032E-14 -1.13887252E-01
 -1.64723630E+00  2.93235589E+00  2.53395673E-01  0.00000000E+00  3.86934406E-02
 -6.97464015E-03  0.00000000E+00 -1.33787581E-01 -1.58929129E-02  5.69436261E-02
  8.23618148E-01 -1.46617795E+00 -1.26697837E-01  1.69008804E-02  9.42025698E-03
  3.48732007E-03 -1.65766707E-01  1.53328778E-01  7.94645644E-03  5.69436261E-02
  8.23618148E-01 -1.46617795E+00 -1.26697837E-01 -1.69008804E-02  9.42025698E-03
  3.48732007E-03  1.65766707E-01  1.53328778E-01  7.94645644E-03  0.00000000E+00
  0.00000000E+00 -7.67560648E-02  0.00000000E+00  0.00000000E+00  0.00000000E+00
 -1.39709151E-01  0.00000000E+00  0.00000000E+00  0.00000000E+00 -8.66410888E-01