 Entering Gaussian System, Link 0=g16
 Initial command:
 /ihome/crc/build/gaussian/a03/g16/l1.exe "/scratch/slurm-8375307/Gau-23080.inp" -scrdir="/scratch/slurm-8375307/"
 Entering Link 1 = /ihome/crc/build/gaussian/a03/g16/l1.exe PID=     23081.
  
 Copyright (c) 1988,1990,1992,1993,1995,1998,2003,2009,2016,
            Gaussian, Inc.  All Rights Reserved.
  
 This is part of the Gaussian(R) 16 program.  It is based on
 the Gaussian(R) 09 system (copyright 2009, Gaussian, Inc.),
 the Gaussian(R) 03 system (copyright 2003, Gaussian, Inc.),
 the Gaussian(R) 98 system (copyright 1998, Gaussian, Inc.),
 the Gaussian(R) 94 system (copyright 1995, Gaussian, Inc.),
 the Gaussian 92(TM) system (copyright 1992, Gaussian, Inc.),
 the Gaussian 90(TM) system (copyright 1990, Gaussian, Inc.),
 the Gaussian 88(TM) system (copyright 1988, Gaussian, Inc.),
 the Gaussian 86(TM) system (copyright 1986, Carnegie Mellon
 University), and the Gaussian 82(TM) system (copyright 1983,
 Carnegie Mellon University). Gaussian is a federally registered
 trademark of Gaussian, Inc.
  
 This software contains proprietary and confidential information,
 including trade secrets, belonging to Gaussian, Inc.
  
 This software is provided under written license and may be
 used, copied, transmitted, or stored only in accord with that
 written license.
  
 The following legend is applicable only to US Government
 contracts under FAR:
  
                    RESTRICTED RIGHTS LEGEND
  
 Use, reproduction and disclosure by the US Government is
 subject to restrictions as set forth in subparagraphs (a)
 and (c) of the Commercial Computer Software - Restricted
 Rights clause in FAR 52.227-19.
  
 Gaussian, Inc.
 340 Quinnipiac St., Bldg. 40, Wallingford CT 06492
  
  
 ---------------------------------------------------------------
 Warning -- This program may not be used in any manner that
 competes with the business of Gaussian, Inc. or will provide
 assistance to any competitor of Gaussian, Inc.  The licensee
 of this program is prohibited from giving any competitor of
 Gaussian, Inc. access to this program.  By using this program,
 the user acknowledges that Gaussian, Inc. is engaged in the
 business of creating and licensing software in the field of
 computational chemistry and represents and warrants to the
 licensee that it is not a competitor of Gaussian, Inc. and that
 it will not use this program in any manner prohibited above.
 ---------------------------------------------------------------
  

 Cite this work as:
 Gaussian 16, Revision A.03,
 M. J. Frisch, G. W. Trucks, H. B. Schlegel, G. E. Scuseria, 
 M. A. Robb, J. R. Cheeseman, G. Scalmani, V. Barone, 
 G. A. Petersson, H. Nakatsuji, X. Li, M. Caricato, A. V. Marenich, 
 J. Bloino, B. G. Janesko, R. Gomperts, B. Mennucci, H. P. Hratchian, 
 J. V. Ortiz, A. F. Izmaylov, J. L. Sonnenberg, D. Williams-Young, 
 F. Ding, F. Lipparini, F. Egidi, J. Goings, B. Peng, A. Petrone, 
 T. Henderson, D. Ranasinghe, V. G. Zakrzewski, J. Gao, N. Rega, 
 G. Zheng, W. Liang, M. Hada, M. Ehara, K. Toyota, R. Fukuda, 
 J. Hasegawa, M. Ishida, T. Nakajima, Y. Honda, O. Kitao, H. Nakai, 
 T. Vreven, K. Throssell, J. A. Montgomery, Jr., J. E. Peralta, 
 F. Ogliaro, M. J. Bearpark, J. J. Heyd, E. N. Brothers, K. N. Kudin, 
 V. N. Staroverov, T. A. Keith, R. Kobayashi, J. Normand, 
 K. Raghavachari, A. P. Rendell, J. C. Burant, S. S. Iyengar, 
 J. Tomasi, M. Cossi, J. M. Millam, M. Klene, C. Adamo, R. Cammi, 
 J. W. Ochterski, R. L. Martin, K. Morokuma, O. Farkas, 
 J. B. Foresman, and D. J. Fox, Gaussian, Inc., Wallingford CT, 2016.
 
 ******************************************
 Gaussian 16:  ES64L-G16RevA.03 25-Dec-2016
                17-Apr-2023 
 ******************************************
 %nprocshared=4
 Will use up to    4 processors via shared memory.
 %mem=10GB
 %chk=/ihome/gmpourmpakis/ant212/NH3.chk
 ----------------------------------------------------------------------
 # cbs-qb3 scf=(xqc,maxcycle=999) geom=connectivity opt=maxcycle=999 io
 p(1/152=999,1/7=10) freq
 ----------------------------------------------------------------------
 1/6=999,7=10,18=20,19=15,26=3,38=1,57=2,152=999/1,3;
 2/9=110,12=2,17=6,18=5,40=1/2;
 3/5=4,6=6,7=700,11=2,25=1,30=1,71=1,74=-5/1,2,3;
 4//1;
 5/5=2,7=999,8=3,13=1,38=5/2,8;
 6/7=2,8=2,9=2,10=2,28=1/1;
 7//1,2,3,16;
 1/6=999,7=10,18=20,19=15,26=3,152=999/3(2);
 2/9=110/2;
 99//99;
 2/9=110/2;
 3/5=4,6=6,7=700,11=2,25=1,30=1,71=1,74=-5/1,2,3;
 4/5=5,16=3,69=1/1;
 5/5=2,7=999,8=3,13=1,38=5/2,8;
 7//1,2,3,16;
 1/6=999,7=10,18=20,19=15,26=3,152=999/3(-5);
 2/9=110/2;
 6/7=2,8=2,9=2,10=2,19=2,28=1/1;
 99/9=1/99;
 ---
 NH3
 ---
 Symbolic Z-matrix:
 Charge =  0 Multiplicity = 1
 N                    -0.75472   0.10482   0. 
 H                    -0.4214   -0.83799   0. 
 H                    -0.42138   0.57622   0.8165 
 H                    -0.42138   0.57622  -0.8165 
 

 GradGradGradGradGradGradGradGradGradGradGradGradGradGradGradGradGradGrad
 Berny optimization.
 Initialization pass.
                           ----------------------------
                           !    Initial Parameters    !
                           ! (Angstroms and Degrees)  !
 --------------------------                            --------------------------
 ! Name  Definition              Value          Derivative Info.                !
 --------------------------------------------------------------------------------
 ! R1    R(1,2)                  1.0            estimate D2E/DX2                !
 ! R2    R(1,3)                  1.0            estimate D2E/DX2                !
 ! R3    R(1,4)                  1.0            estimate D2E/DX2                !
 ! A1    A(2,1,3)              109.4712         estimate D2E/DX2                !
 ! A2    A(2,1,4)              109.4712         estimate D2E/DX2                !
 ! A3    A(3,1,4)              109.4713         estimate D2E/DX2                !
 ! D1    D(2,1,4,3)           -120.0            estimate D2E/DX2                !
 --------------------------------------------------------------------------------
 Trust Radius=3.00D-01 FncErr=1.00D-07 GrdErr=1.00D-06 EigMax=2.50D+02 EigMin=1.00D-04
 Number of steps in this run=    999 maximum allowed number of steps=    999.
 GradGradGradGradGradGradGradGradGradGradGradGradGradGradGradGradGradGrad

                          Input orientation:                          
 ---------------------------------------------------------------------
 Center     Atomic      Atomic             Coordinates (Angstroms)
 Number     Number       Type             X           Y           Z
 ---------------------------------------------------------------------
      1          7           0       -0.754717    0.104822    0.000000
      2          1           0       -0.421395   -0.837991    0.000000
      3          1           0       -0.421378    0.576222    0.816497
      4          1           0       -0.421378    0.576222   -0.816497
 ---------------------------------------------------------------------
                    Distance matrix (angstroms):
                    1          2          3          4
     1  N    0.000000
     2  H    1.000000   0.000000
     3  H    1.000000   1.632993   0.000000
     4  H    1.000000   1.632993   1.632993   0.000000
 Stoichiometry    H3N
 Framework group  C3V[C3(N),3SGV(H)]
 Deg. of freedom     2
 Full point group                 C3V     NOp   6
 Largest Abelian subgroup         CS      NOp   2
 Largest concise Abelian subgroup CS      NOp   2
                         Standard orientation:                         
 ---------------------------------------------------------------------
 Center     Atomic      Atomic             Coordinates (Angstroms)
 Number     Number       Type             X           Y           Z
 ---------------------------------------------------------------------
      1          7           0        0.000000    0.000000    0.100000
      2          1           0        0.000000    0.942809   -0.233333
      3          1           0       -0.816497   -0.471405   -0.233333
      4          1           0        0.816497   -0.471405   -0.233333
 ---------------------------------------------------------------------
 Rotational constants (GHZ):         311.9520328         311.9520328         188.0456790
 Standard basis: 6-311G(2d,d,p) (5D, 7F)
 There are    25 symmetry adapted cartesian basis functions of A'  symmetry.
 There are    12 symmetry adapted cartesian basis functions of A"  symmetry.
 There are    24 symmetry adapted basis functions of A'  symmetry.
 There are    12 symmetry adapted basis functions of A"  symmetry.
    36 basis functions,    56 primitive gaussians,    37 cartesian basis functions
     5 alpha electrons        5 beta electrons
       nuclear repulsion energy        12.0848827900 Hartrees.
 NAtoms=    4 NActive=    4 NUniq=    2 SFac= 4.00D+00 NAtFMM=   60 NAOKFM=F Big=F
 Integral buffers will be    131072 words long.
 Raffenetti 2 integral format.
 Two-electron integral symmetry is turned on.
 One-electron integrals computed using PRISM.
 NBasis=    36 RedAO= T EigKep=  1.28D-02  NBF=    24    12
 NBsUse=    36 1.00D-06 EigRej= -1.00D+00 NBFU=    24    12
 ExpMin= 1.03D-01 ExpMax= 6.29D+03 ExpMxC= 9.49D+02 IAcc=3 IRadAn=         5 AccDes= 0.00D+00
 Harris functional with IExCor=  402 and IRadAn=       5 diagonalized for initial guess.
 HarFok:  IExCor=  402 AccDes= 0.00D+00 IRadAn=         5 IDoV= 1 UseB2=F ITyADJ=14
 ICtDFT=  3500011 ScaDFX=  1.000000  1.000000  1.000000  1.000000
 FoFCou: FMM=F IPFlag=           0 FMFlag=      100000 FMFlg1=           0
         NFxFlg=           0 DoJE=T BraDBF=F KetDBF=T FulRan=T
         wScrn=  0.000000 ICntrl=       500 IOpCl=  0 I1Cent=   200000004 NGrid=           0
         NMat0=    1 NMatS0=      1 NMatT0=    0 NMatD0=    1 NMtDS0=    0 NMtDT0=    0
 Petite list used in FoFCou.
 Initial guess orbital symmetries:
       Occupied  (A1) (A1) (E) (E) (A1)
       Virtual   (A1) (E) (E) (E) (E) (A1) (A1) (E) (E) (A1) (E)
                 (E) (A2) (A1) (E) (E) (E) (E) (A1) (E) (E) (A1)
                 (E) (E) (A1) (E) (E) (A1) (E) (E) (A1)
 The electronic state of the initial guess is 1-A1.
 Keep R1 ints in memory in symmetry-blocked form, NReq=3675634.
 Requested convergence on RMS density matrix=1.00D-08 within 128 cycles.
 Requested convergence on MAX density matrix=1.00D-06.
 Requested convergence on             energy=1.00D-06.
 No special actions if energy rises.
 Integral accuracy reduced to 1.0D-05 until final iterations.
 Initial convergence to 1.0D-05 achieved.  Increase integral accuracy.
 SCF Done:  E(RB3LYP) =  -56.5752202696     A.U. after    9 cycles
            NFock=  9  Conv=0.44D-08     -V/T= 2.0022
 QCSCF skips out because SCF is already converged.

 **********************************************************************

            Population analysis using the SCF density.

 **********************************************************************

 Orbital symmetries:
       Occupied  (A1) (A1) (E) (E) (A1)
       Virtual   (A1) (E) (E) (E) (E) (A1) (A1) (E) (E) (A1) (E)
                 (E) (A2) (A1) (E) (E) (E) (E) (A1) (E) (E) (A1)
                 (E) (E) (A1) (E) (E) (A1) (E) (E) (A1)
 The electronic state is 1-A1.
 Alpha  occ. eigenvalues --  -14.27085  -0.84757  -0.46386  -0.46386  -0.25082
 Alpha virt. eigenvalues --    0.04327   0.12039   0.12039   0.35275   0.35275
 Alpha virt. eigenvalues --    0.46362   0.60210   0.72302   0.72302   0.88936
 Alpha virt. eigenvalues --    1.12979   1.12979   1.52198   1.60230   1.63450
 Alpha virt. eigenvalues --    1.63450   1.90332   1.90332   2.08397   2.36714
 Alpha virt. eigenvalues --    2.36714   2.49108   2.67666   2.67666   2.85211
 Alpha virt. eigenvalues --    3.06735   3.06735   3.89744   4.79038   4.79038
 Alpha virt. eigenvalues --   35.64550
          Condensed to atoms (all electrons):
               1          2          3          4
     1  N    6.440714   0.380805   0.380805   0.380805
     2  H    0.380805   0.499506  -0.037343  -0.037343
     3  H    0.380805  -0.037343   0.499506  -0.037343
     4  H    0.380805  -0.037343  -0.037343   0.499506
 Mulliken charges:
               1
     1  N   -0.583128
     2  H    0.194376
     3  H    0.194376
     4  H    0.194376
 Sum of Mulliken charges =   0.00000
 Mulliken charges with hydrogens summed into heavy atoms:
               1
     1  N    0.000000
 Electronic spatial extent (au):  <R**2>=             26.0400
 Charge=              0.0000 electrons
 Dipole moment (field-independent basis, Debye):
    X=             -0.0000    Y=              0.0000    Z=             -1.5455  Tot=              1.5455
 Quadrupole moment (field-independent basis, Debye-Ang):
   XX=             -6.0673   YY=             -6.0673   ZZ=             -8.9608
   XY=              0.0000   XZ=              0.0000   YZ=              0.0000
 Traceless Quadrupole moment (field-independent basis, Debye-Ang):
   XX=              0.9645   YY=              0.9645   ZZ=             -1.9290
   XY=              0.0000   XZ=              0.0000   YZ=              0.0000
 Octapole moment (field-independent basis, Debye-Ang**2):
  XXX=             -0.0000  YYY=              0.8503  ZZZ=             -1.2702  XYY=              0.0000
  XXY=             -0.8503  XXZ=             -0.7366  XZZ=              0.0000  YZZ=              0.0000
  YYZ=             -0.7366  XYZ=              0.0000
 Hexadecapole moment (field-independent basis, Debye-Ang**3):
 XXXX=             -9.7378 YYYY=             -9.7378 ZZZZ=             -9.8127 XXXY=              0.0000
 XXXZ=              0.0000 YYYX=              0.0000 YYYZ=             -0.2970 ZZZX=             -0.0000
 ZZZY=             -0.0000 XXYY=             -3.2459 XXZZ=             -3.3732 YYZZ=             -3.3732
 XXYZ=              0.2970 YYXZ=             -0.0000 ZZXY=              0.0000
 N-N= 1.208488278997D+01 E-N=-1.564864466022D+02  KE= 5.645239787713D+01
 Symmetry A'   KE= 5.376414972343D+01
 Symmetry A"   KE= 2.688248153698D+00
 Calling FoFJK, ICntrl=      2127 FMM=F ISym2X=1 I1Cent= 0 IOpClX= 0 NMat=1 NMatS=1 NMatT=0.
 ***** Axes restored to original set *****
 -------------------------------------------------------------------
 Center     Atomic                   Forces (Hartrees/Bohr)
 Number     Number              X              Y              Z
 -------------------------------------------------------------------
      1        7          -0.017180650    0.000000207   -0.000000000
      2        1           0.005726771   -0.009293297   -0.000000001
      3        1           0.005726939    0.004646544    0.008048173
      4        1           0.005726939    0.004646546   -0.008048171
 -------------------------------------------------------------------
 Cartesian Forces:  Max     0.017180650 RMS     0.007374837

 GradGradGradGradGradGradGradGradGradGradGradGradGradGradGradGradGradGrad
 Berny optimization.
 FormGI is forming the generalized inverse of G from B-inverse, IUseBI=4.
 Internal  Forces:  Max     0.010670701 RMS     0.007205349
 Search for a local minimum.
 Step number   1 out of a maximum of  999
 All quantities printed in internal units (Hartrees-Bohrs-Radians)
 Mixed Optimization -- RFO/linear search
 Second derivative matrix not updated -- first step.
 The second derivative matrix:
                          R1        R2        R3        A1        A2
           R1           0.47688
           R2           0.00000   0.47688
           R3           0.00000   0.00000   0.47688
           A1           0.00000   0.00000   0.00000   0.16000
           A2           0.00000   0.00000   0.00000   0.00000   0.16000
           A3           0.00000   0.00000   0.00000   0.00000   0.00000
           D1           0.00000   0.00000   0.00000   0.00000   0.00000
                          A3        D1
           A3           0.16000
           D1           0.00000   0.01028
 ITU=  0
     Eigenvalues ---    0.05635   0.16000   0.16000   0.47688   0.47688
     Eigenvalues ---    0.47688
 RFO step:  Lambda=-1.02446288D-03 EMin= 5.63503299D-02
 Linear search not attempted -- first point.
 Iteration  1 RMS(Cart)=  0.01677742 RMS(Int)=  0.00082137
 Iteration  2 RMS(Cart)=  0.00052101 RMS(Int)=  0.00056912
 Iteration  3 RMS(Cart)=  0.00000039 RMS(Int)=  0.00056912
 ClnCor:  largest displacement from symmetrization is 9.58D-04 for atom     4.
 Variable       Old X    -DE/DX   Delta X   Delta X   Delta X     New X
                                 (Linear)    (Quad)   (Total)
    R1        1.88973   0.01067   0.00000   0.02233   0.02260   1.91232
    R2        1.88973   0.01067   0.00000   0.02233   0.02260   1.91232
    R3        1.88973   0.01067   0.00000   0.02233   0.02260   1.91232
    A1        1.91063  -0.00033   0.00000  -0.02210  -0.02429   1.88634
    A2        1.91063  -0.00234   0.00000  -0.02455  -0.02429   1.88634
    A3        1.91063  -0.00234   0.00000  -0.02455  -0.02429   1.88634
    D1       -2.09440   0.00328   0.00000   0.05714   0.05686  -2.03753
         Item               Value     Threshold  Converged?
 Maximum Force            0.010671     0.000015     NO 
 RMS     Force            0.007205     0.000010     NO 
 Maximum Displacement     0.037621     0.000060     NO 
 RMS     Displacement     0.016815     0.000040     NO 
 Predicted change in Energy=-5.081642D-04
 GradGradGradGradGradGradGradGradGradGradGradGradGradGradGradGradGradGrad

                          Input orientation:                          
 ---------------------------------------------------------------------
 Center     Atomic      Atomic             Coordinates (Angstroms)
 Number     Number       Type             X           Y           Z
 ---------------------------------------------------------------------
      1          7           0       -0.774625    0.104822   -0.000000
      2          1           0       -0.414794   -0.841000   -0.000000
      3          1           0       -0.414777    0.577726    0.819102
      4          1           0       -0.414777    0.577727   -0.819102
 ---------------------------------------------------------------------
                    Distance matrix (angstroms):
                    1          2          3          4
     1  N    0.000000
     2  H    1.011957   0.000000
     3  H    1.011957   1.638204   0.000000
     4  H    1.011957   1.638204   1.638204   0.000000
 Stoichiometry    H3N
 Framework group  C3V[C3(N),3SGV(H)]
 Deg. of freedom     2
 Full point group                 C3V     NOp   6
 Largest Abelian subgroup         CS      NOp   2
 Largest concise Abelian subgroup CS      NOp   2
                         Standard orientation:                         
 ---------------------------------------------------------------------
 Center     Atomic      Atomic             Coordinates (Angstroms)
 Number     Number       Type             X           Y           Z
 ---------------------------------------------------------------------
      1          7           0       -0.000000    0.000000    0.107953
      2          1           0        0.000000    0.945818   -0.251890
      3          1           0       -0.819102   -0.472909   -0.251890
      4          1           0        0.819102   -0.472909   -0.251890
 ---------------------------------------------------------------------
 Rotational constants (GHZ):         301.8385627         301.8385627         186.8512789
 Standard basis: 6-311G(2d,d,p) (5D, 7F)
 There are    25 symmetry adapted cartesian basis functions of A'  symmetry.
 There are    12 symmetry adapted cartesian basis functions of A"  symmetry.
 There are    24 symmetry adapted basis functions of A'  symmetry.
 There are    12 symmetry adapted basis functions of A"  symmetry.
    36 basis functions,    56 primitive gaussians,    37 cartesian basis functions
     5 alpha electrons        5 beta electrons
       nuclear repulsion energy        11.9504828853 Hartrees.
 NAtoms=    4 NActive=    4 NUniq=    2 SFac= 4.00D+00 NAtFMM=   60 NAOKFM=F Big=F
 Integral buffers will be    131072 words long.
 Raffenetti 2 integral format.
 Two-electron integral symmetry is turned on.
 One-electron integrals computed using PRISM.
 NBasis=    36 RedAO= T EigKep=  1.24D-02  NBF=    24    12
 NBsUse=    36 1.00D-06 EigRej= -1.00D+00 NBFU=    24    12
 Initial guess from the checkpoint file:  "/ihome/gmpourmpakis/ant212/NH3.chk"
 B after Tr=    -0.000000    0.000000   -0.000000
         Rot=    1.000000   -0.000000   -0.000000   -0.000000 Ang=   0.00 deg.
 Initial guess orbital symmetries:
       Occupied  (A1) (A1) (E) (E) (A1)
       Virtual   (A1) (E) (E) (E) (E) (A1) (A1) (E) (E) (A1) (E)
                 (E) (A2) (A1) (E) (E) (E) (E) (A1) (E) (E) (A1)
                 (E) (E) (A1) (E) (E) (A1) (E) (E) (A1)
 ExpMin= 1.03D-01 ExpMax= 6.29D+03 ExpMxC= 9.49D+02 IAcc=2 IRadAn=         4 AccDes= 0.00D+00
 Harris functional with IExCor=  402 and IRadAn=       4 diagonalized for initial guess.
 HarFok:  IExCor=  402 AccDes= 0.00D+00 IRadAn=         4 IDoV= 1 UseB2=F ITyADJ=14
 ICtDFT=  3500011 ScaDFX=  1.000000  1.000000  1.000000  1.000000
 FoFCou: FMM=F IPFlag=           0 FMFlag=      100000 FMFlg1=           0
         NFxFlg=           0 DoJE=T BraDBF=F KetDBF=T FulRan=T
         wScrn=  0.000000 ICntrl=       500 IOpCl=  0 I1Cent=   200000004 NGrid=           0
         NMat0=    1 NMatS0=      1 NMatT0=    0 NMatD0=    1 NMtDS0=    0 NMtDT0=    0
 Petite list used in FoFCou.
 Keep R1 ints in memory in symmetry-blocked form, NReq=3675634.
 Requested convergence on RMS density matrix=1.00D-08 within 128 cycles.
 Requested convergence on MAX density matrix=1.00D-06.
 Requested convergence on             energy=1.00D-06.
 No special actions if energy rises.
 Integral accuracy reduced to 1.0D-05 until final iterations.
 Initial convergence to 1.0D-05 achieved.  Increase integral accuracy.
 SCF Done:  E(RB3LYP) =  -56.5758939533     A.U. after    9 cycles
            NFock=  9  Conv=0.26D-08     -V/T= 2.0031
 QCSCF skips out because SCF is already converged.
 Calling FoFJK, ICntrl=      2127 FMM=F ISym2X=1 I1Cent= 0 IOpClX= 0 NMat=1 NMatS=1 NMatT=0.
 ***** Axes restored to original set *****
 -------------------------------------------------------------------
 Center     Atomic                   Forces (Hartrees/Bohr)
 Number     Number              X              Y              Z
 -------------------------------------------------------------------
      1        7          -0.006110380    0.000000074    0.000000000
      2        1           0.002036784   -0.000813256   -0.000000000
      3        1           0.002036798    0.000406591    0.000704279
      4        1           0.002036798    0.000406591   -0.000704279
 -------------------------------------------------------------------
 Cartesian Forces:  Max     0.006110380 RMS     0.002076984

 GradGradGradGradGradGradGradGradGradGradGradGradGradGradGradGradGradGrad
 Berny optimization.
 Using GEDIIS/GDIIS optimizer.
 FormGI is forming the generalized inverse of G from B-inverse, IUseBI=4.
 Internal  Forces:  Max     0.002233674 RMS     0.001598675
 Search for a local minimum.
 Step number   2 out of a maximum of  999
 All quantities printed in internal units (Hartrees-Bohrs-Radians)
 Mixed Optimization -- RFO/linear search
 Update second derivatives using D2CorX and points    1    2
 DE= -6.74D-04 DEPred=-5.08D-04 R= 1.33D+00
 TightC=F SS=  1.41D+00  RLast= 8.08D-02 DXNew= 5.0454D-01 2.4253D-01
 Trust test= 1.33D+00 RLast= 8.08D-02 DXMaxT set to 3.00D-01
 The second derivative matrix:
                          R1        R2        R3        A1        A2
           R1           0.48468
           R2           0.00780   0.48468
           R3           0.00780   0.00780   0.48468
           A1           0.03972   0.03972   0.03972   0.14557
           A2           0.03248   0.03248   0.03248  -0.01441   0.14605
           A3           0.03248   0.03248   0.03248  -0.01441  -0.01395
           D1           0.00748   0.00748   0.00748   0.00214   0.00132
                          A3        D1
           A3           0.14605
           D1           0.00132   0.01149
 ITU=  1  0
 Use linear search instead of GDIIS.
     Eigenvalues ---    0.04038   0.15333   0.16000   0.47688   0.47688
     Eigenvalues ---    0.50773
 RFO step:  Lambda=-1.52378716D-04 EMin= 4.03783780D-02
 Quartic linear search produced a step of  0.46548.
 Iteration  1 RMS(Cart)=  0.01880649 RMS(Int)=  0.00117812
 Iteration  2 RMS(Cart)=  0.00058798 RMS(Int)=  0.00099858
 Iteration  3 RMS(Cart)=  0.00000015 RMS(Int)=  0.00099858
 ClnCor:  largest displacement from symmetrization is 8.53D-05 for atom     4.
 Variable       Old X    -DE/DX   Delta X   Delta X   Delta X     New X
                                 (Linear)    (Quad)   (Total)
    R1        1.91232   0.00148   0.01052  -0.00241   0.00813   1.92045
    R2        1.91232   0.00148   0.01052  -0.00241   0.00813   1.92045
    R3        1.91232   0.00148   0.01052  -0.00241   0.00813   1.92045
    A1        1.88634  -0.00031  -0.01131  -0.01680  -0.03004   1.85630
    A2        1.88634  -0.00176  -0.01131  -0.01808  -0.03004   1.85630
    A3        1.88634  -0.00176  -0.01131  -0.01808  -0.03004   1.85630
    D1       -2.03753   0.00223   0.02647   0.03896   0.06387  -1.97366
         Item               Value     Threshold  Converged?
 Maximum Force            0.002234     0.000015     NO 
 RMS     Force            0.001599     0.000010     NO 
 Maximum Displacement     0.039550     0.000060     NO 
 RMS     Displacement     0.019007     0.000040     NO 
 Predicted change in Energy=-1.362710D-04
 GradGradGradGradGradGradGradGradGradGradGradGradGradGradGradGradGradGrad

                          Input orientation:                          
 ---------------------------------------------------------------------
 Center     Atomic      Atomic             Coordinates (Angstroms)
 Number     Number       Type             X           Y           Z
 ---------------------------------------------------------------------
      1          7           0       -0.795554    0.104822    0.000000
      2          1           0       -0.407820   -0.834565   -0.000000
      3          1           0       -0.407803    0.574509    0.813529
      4          1           0       -0.407803    0.574509   -0.813529
 ---------------------------------------------------------------------
                    Distance matrix (angstroms):
                    1          2          3          4
     1  N    0.000000
     2  H    1.016261   0.000000
     3  H    1.016261   1.627058   0.000000
     4  H    1.016261   1.627058   1.627058   0.000000
 Stoichiometry    H3N
 Framework group  C3V[C3(N),3SGV(H)]
 Deg. of freedom     2
 Full point group                 C3V     NOp   6
 Largest Abelian subgroup         CS      NOp   2
 Largest concise Abelian subgroup CS      NOp   2
                         Standard orientation:                         
 ---------------------------------------------------------------------
 Center     Atomic      Atomic             Coordinates (Angstroms)
 Number     Number       Type             X           Y           Z
 ---------------------------------------------------------------------
      1          7           0       -0.000000    0.000000    0.116324
      2          1           0       -0.000000    0.939383   -0.271422
      3          1           0       -0.813529   -0.469691   -0.271422
      4          1           0        0.813529   -0.469691   -0.271422
 ---------------------------------------------------------------------
 Rotational constants (GHZ):         295.9124997         295.9124997         189.4199825
 Standard basis: 6-311G(2d,d,p) (5D, 7F)
 There are    25 symmetry adapted cartesian basis functions of A'  symmetry.
 There are    12 symmetry adapted cartesian basis functions of A"  symmetry.
 There are    24 symmetry adapted basis functions of A'  symmetry.
 There are    12 symmetry adapted basis functions of A"  symmetry.
    36 basis functions,    56 primitive gaussians,    37 cartesian basis functions
     5 alpha electrons        5 beta electrons
       nuclear repulsion energy        11.9106169360 Hartrees.
 NAtoms=    4 NActive=    4 NUniq=    2 SFac= 4.00D+00 NAtFMM=   60 NAOKFM=F Big=F
 Integral buffers will be    131072 words long.
 Raffenetti 2 integral format.
 Two-electron integral symmetry is turned on.
 One-electron integrals computed using PRISM.
 NBasis=    36 RedAO= T EigKep=  1.14D-02  NBF=    24    12
 NBsUse=    36 1.00D-06 EigRej= -1.00D+00 NBFU=    24    12
 Initial guess from the checkpoint file:  "/ihome/gmpourmpakis/ant212/NH3.chk"
 B after Tr=     0.000000    0.000000    0.000000
         Rot=    1.000000   -0.000000    0.000000   -0.000000 Ang=   0.00 deg.
 Initial guess orbital symmetries:
       Occupied  (A1) (A1) (E) (E) (A1)
       Virtual   (A1) (E) (E) (E) (E) (A1) (A1) (E) (E) (A1) (E)
                 (E) (A2) (A1) (E) (E) (E) (E) (A1) (E) (E) (A1)
                 (E) (E) (A1) (E) (E) (A1) (E) (E) (A1)
 ExpMin= 1.03D-01 ExpMax= 6.29D+03 ExpMxC= 9.49D+02 IAcc=2 IRadAn=         4 AccDes= 0.00D+00
 Harris functional with IExCor=  402 and IRadAn=       4 diagonalized for initial guess.
 HarFok:  IExCor=  402 AccDes= 0.00D+00 IRadAn=         4 IDoV= 1 UseB2=F ITyADJ=14
 ICtDFT=  3500011 ScaDFX=  1.000000  1.000000  1.000000  1.000000
 FoFCou: FMM=F IPFlag=           0 FMFlag=      100000 FMFlg1=           0
         NFxFlg=           0 DoJE=T BraDBF=F KetDBF=T FulRan=T
         wScrn=  0.000000 ICntrl=       500 IOpCl=  0 I1Cent=   200000004 NGrid=           0
         NMat0=    1 NMatS0=      1 NMatT0=    0 NMatD0=    1 NMtDS0=    0 NMtDT0=    0
 Petite list used in FoFCou.
 Keep R1 ints in memory in symmetry-blocked form, NReq=3675634.
 Requested convergence on RMS density matrix=1.00D-08 within 128 cycles.
 Requested convergence on MAX density matrix=1.00D-06.
 Requested convergence on             energy=1.00D-06.
 No special actions if energy rises.
 Integral accuracy reduced to 1.0D-05 until final iterations.
 Initial convergence to 1.0D-05 achieved.  Increase integral accuracy.
 SCF Done:  E(RB3LYP) =  -56.5760350632     A.U. after    9 cycles
            NFock=  9  Conv=0.32D-09     -V/T= 2.0032
 QCSCF skips out because SCF is already converged.
 Calling FoFJK, ICntrl=      2127 FMM=F ISym2X=1 I1Cent= 0 IOpClX= 0 NMat=1 NMatS=1 NMatT=0.
 ***** Axes restored to original set *****
 -------------------------------------------------------------------
 Center     Atomic                   Forces (Hartrees/Bohr)
 Number     Number              X              Y              Z
 -------------------------------------------------------------------
      1        7           0.000577976   -0.000000007    0.000000000
      2        1          -0.000192656    0.000245001    0.000000000
      3        1          -0.000192660   -0.000122497   -0.000212175
      4        1          -0.000192660   -0.000122497    0.000212175
 -------------------------------------------------------------------
 Cartesian Forces:  Max     0.000577976 RMS     0.000228306

 GradGradGradGradGradGradGradGradGradGradGradGradGradGradGradGradGradGrad
 Berny optimization.
 Using GEDIIS/GDIIS optimizer.
 FormGI is forming the generalized inverse of G from B-inverse, IUseBI=4.
 Internal  Forces:  Max     0.000299972 RMS     0.000207697
 Search for a local minimum.
 Step number   3 out of a maximum of  999
 All quantities printed in internal units (Hartrees-Bohrs-Radians)
 Mixed Optimization -- En-DIIS/RFO-DIIS
 Update second derivatives using D2CorX and points    1    2    3
 DE= -1.41D-04 DEPred=-1.36D-04 R= 1.04D+00
 TightC=F SS=  1.41D+00  RLast= 8.36D-02 DXNew= 5.0454D-01 2.5073D-01
 Trust test= 1.04D+00 RLast= 8.36D-02 DXMaxT set to 3.00D-01
 The second derivative matrix:
                          R1        R2        R3        A1        A2
           R1           0.49158
           R2           0.01470   0.49158
           R3           0.01470   0.01470   0.49158
           A1           0.05847   0.05847   0.05847   0.13419
           A2           0.03781   0.03781   0.03781  -0.02869   0.13669
           A3           0.03781   0.03781   0.03781  -0.02869  -0.02331
           D1           0.02467   0.02467   0.02467   0.00856  -0.00370
                          A3        D1
           A3           0.13669
           D1          -0.00370   0.02784
 ITU=  1  1  0
 Use linear search instead of GDIIS.
     Eigenvalues ---    0.04133   0.15218   0.16000   0.47688   0.47688
     Eigenvalues ---    0.52824
 RFO step:  Lambda=-2.15371531D-07 EMin= 4.13258434D-02
 Quartic linear search produced a step of -0.06142.
 Iteration  1 RMS(Cart)=  0.00103534 RMS(Int)=  0.00004250
 Iteration  2 RMS(Cart)=  0.00000189 RMS(Int)=  0.00004246
 Iteration  3 RMS(Cart)=  0.00000000 RMS(Int)=  0.00004246
 ClnCor:  largest displacement from symmetrization is 1.11D-05 for atom     4.
 Variable       Old X    -DE/DX   Delta X   Delta X   Delta X     New X
                                 (Linear)    (Quad)   (Total)
    R1        1.92045  -0.00030  -0.00050  -0.00033  -0.00083   1.91962
    R2        1.92045  -0.00030  -0.00050  -0.00033  -0.00083   1.91962
    R3        1.92045  -0.00030  -0.00050  -0.00033  -0.00083   1.91962
    A1        1.85630   0.00002   0.00185  -0.00023   0.00171   1.85801
    A2        1.85630   0.00010   0.00185  -0.00016   0.00171   1.85801
    A3        1.85630   0.00010   0.00185  -0.00016   0.00171   1.85801
    D1       -1.97366  -0.00011  -0.00392   0.00039  -0.00347  -1.97713
         Item               Value     Threshold  Converged?
 Maximum Force            0.000300     0.000015     NO 
 RMS     Force            0.000208     0.000010     NO 
 Maximum Displacement     0.002307     0.000060     NO 
 RMS     Displacement     0.001034     0.000040     NO 
 Predicted change in Energy=-8.035855D-07
 GradGradGradGradGradGradGradGradGradGradGradGradGradGradGradGradGradGrad

                          Input orientation:                          
 ---------------------------------------------------------------------
 Center     Atomic      Atomic             Coordinates (Angstroms)
 Number     Number       Type             X           Y           Z
 ---------------------------------------------------------------------
      1          7           0       -0.794333    0.104822    0.000000
      2          1           0       -0.408226   -0.834757   -0.000000
      3          1           0       -0.408209    0.574605    0.813696
      4          1           0       -0.408209    0.574605   -0.813696
 ---------------------------------------------------------------------
                    Distance matrix (angstroms):
                    1          2          3          4
     1  N    0.000000
     2  H    1.015819   0.000000
     3  H    1.015819   1.627392   0.000000
     4  H    1.015819   1.627392   1.627392   0.000000
 Stoichiometry    H3N
 Framework group  C3V[C3(N),3SGV(H)]
 Deg. of freedom     2
 Full point group                 C3V     NOp   6
 Largest Abelian subgroup         CS      NOp   2
 Largest concise Abelian subgroup CS      NOp   2
                         Standard orientation:                         
 ---------------------------------------------------------------------
 Center     Atomic      Atomic             Coordinates (Angstroms)
 Number     Number       Type             X           Y           Z
 ---------------------------------------------------------------------
      1          7           0        0.000000    0.000000    0.115835
      2          1           0       -0.000000    0.939575   -0.270283
      3          1           0       -0.813696   -0.469788   -0.270283
      4          1           0        0.813696   -0.469788   -0.270283
 ---------------------------------------------------------------------
 Rotational constants (GHZ):         296.3610642         296.3610642         189.3424070
 Standard basis: 6-311G(2d,d,p) (5D, 7F)
 There are    25 symmetry adapted cartesian basis functions of A'  symmetry.
 There are    12 symmetry adapted cartesian basis functions of A"  symmetry.
 There are    24 symmetry adapted basis functions of A'  symmetry.
 There are    12 symmetry adapted basis functions of A"  symmetry.
    36 basis functions,    56 primitive gaussians,    37 cartesian basis functions
     5 alpha electrons        5 beta electrons
       nuclear repulsion energy        11.9151732373 Hartrees.
 NAtoms=    4 NActive=    4 NUniq=    2 SFac= 4.00D+00 NAtFMM=   60 NAOKFM=F Big=F
 Integral buffers will be    131072 words long.
 Raffenetti 2 integral format.
 Two-electron integral symmetry is turned on.
 One-electron integrals computed using PRISM.
 NBasis=    36 RedAO= T EigKep=  1.15D-02  NBF=    24    12
 NBsUse=    36 1.00D-06 EigRej= -1.00D+00 NBFU=    24    12
 Initial guess from the checkpoint file:  "/ihome/gmpourmpakis/ant212/NH3.chk"
 B after Tr=     0.000000   -0.000000   -0.000000
         Rot=    1.000000    0.000000   -0.000000    0.000000 Ang=   0.00 deg.
 Initial guess orbital symmetries:
       Occupied  (A1) (A1) (E) (E) (A1)
       Virtual   (A1) (E) (E) (E) (E) (A1) (A1) (E) (E) (A1) (E)
                 (E) (A2) (A1) (E) (E) (E) (E) (A1) (E) (E) (A1)
                 (E) (E) (A1) (E) (E) (A1) (E) (E) (A1)
 Keep R1 ints in memory in symmetry-blocked form, NReq=3675634.
 Requested convergence on RMS density matrix=1.00D-08 within 128 cycles.
 Requested convergence on MAX density matrix=1.00D-06.
 Requested convergence on             energy=1.00D-06.
 No special actions if energy rises.
 SCF Done:  E(RB3LYP) =  -56.5760358396     A.U. after    6 cycles
            NFock=  6  Conv=0.73D-08     -V/T= 2.0032
 QCSCF skips out because SCF is already converged.
 Calling FoFJK, ICntrl=      2127 FMM=F ISym2X=1 I1Cent= 0 IOpClX= 0 NMat=1 NMatS=1 NMatT=0.
 ***** Axes restored to original set *****
 -------------------------------------------------------------------
 Center     Atomic                   Forces (Hartrees/Bohr)
 Number     Number              X              Y              Z
 -------------------------------------------------------------------
      1        7           0.000026950   -0.000000000   -0.000000000
      2        1          -0.000008983    0.000034560    0.000000000
      3        1          -0.000008984   -0.000017280   -0.000029929
      4        1          -0.000008984   -0.000017280    0.000029929
 -------------------------------------------------------------------
 Cartesian Forces:  Max     0.000034560 RMS     0.000019475

 GradGradGradGradGradGradGradGradGradGradGradGradGradGradGradGradGradGrad
 Berny optimization.
 Using GEDIIS/GDIIS optimizer.
 FormGI is forming the generalized inverse of G from B-inverse, IUseBI=4.
 Internal  Forces:  Max     0.000035380 RMS     0.000023480
 Search for a local minimum.
 Step number   4 out of a maximum of  999
 All quantities printed in internal units (Hartrees-Bohrs-Radians)
 Mixed Optimization -- En-DIIS/RFO-DIIS
 Swapping is turned off.
 Update second derivatives using D2CorX and points    1    2    3    4
 DE= -7.76D-07 DEPred=-8.04D-07 R= 9.66D-01
 Trust test= 9.66D-01 RLast= 4.78D-03 DXMaxT set to 3.00D-01
 The second derivative matrix:
                          R1        R2        R3        A1        A2
           R1           0.47630
           R2          -0.00059   0.47630
           R3          -0.00059  -0.00059   0.47630
           A1           0.03462   0.03462   0.03462   0.12524
           A2           0.02760   0.02760   0.02760  -0.03096   0.13785
           A3           0.02760   0.02760   0.02760  -0.03096  -0.02215
           D1           0.00620   0.00620   0.00620  -0.00028  -0.00799
                          A3        D1
           A3           0.13785
           D1          -0.00799   0.02141
 ITU=  0  1  1  0
     Eigenvalues ---    0.04518   0.15401   0.16000   0.47688   0.47688
     Eigenvalues ---    0.48206
 En-DIIS/RFO-DIIS/Sim-DIIS IScMMF=       -3 using points:     4    3
 RFO step:  Lambda=-8.00193711D-09.
 DidBck=F Rises=F RFO-DIIS coefs:    0.99580    0.00420
 Iteration  1 RMS(Cart)=  0.00005294 RMS(Int)=  0.00000001
 Iteration  2 RMS(Cart)=  0.00000000 RMS(Int)=  0.00000001
 ClnCor:  largest displacement from symmetrization is 2.19D-06 for atom     4.
 Variable       Old X    -DE/DX   Delta X   Delta X   Delta X     New X
                                 (Linear)    (Quad)   (Total)
    R1        1.91962  -0.00004   0.00000  -0.00007  -0.00007   1.91955
    R2        1.91962  -0.00004   0.00000  -0.00007  -0.00007   1.91955
    R3        1.91962  -0.00004   0.00000  -0.00007  -0.00007   1.91955
    A1        1.85801  -0.00000  -0.00001  -0.00001  -0.00002   1.85799
    A2        1.85801  -0.00001  -0.00001  -0.00002  -0.00002   1.85799
    A3        1.85801  -0.00001  -0.00001  -0.00002  -0.00002   1.85799
    D1       -1.97713   0.00001   0.00001   0.00003   0.00005  -1.97708
         Item               Value     Threshold  Converged?
 Maximum Force            0.000035     0.000015     NO 
 RMS     Force            0.000023     0.000010     NO 
 Maximum Displacement     0.000080     0.000060     NO 
 RMS     Displacement     0.000052     0.000040     NO 
 Predicted change in Energy=-4.043758D-09
 GradGradGradGradGradGradGradGradGradGradGradGradGradGradGradGradGradGrad

                          Input orientation:                          
 ---------------------------------------------------------------------
 Center     Atomic      Atomic             Coordinates (Angstroms)
 Number     Number       Type             X           Y           Z
 ---------------------------------------------------------------------
      1          7           0       -0.794337    0.104822    0.000000
      2          1           0       -0.408225   -0.834715   -0.000000
      3          1           0       -0.408208    0.574584    0.813659
      4          1           0       -0.408208    0.574584   -0.813659
 ---------------------------------------------------------------------
                    Distance matrix (angstroms):
                    1          2          3          4
     1  N    0.000000
     2  H    1.015782   0.000000
     3  H    1.015782   1.627318   0.000000
     4  H    1.015782   1.627318   1.627318   0.000000
 Stoichiometry    H3N
 Framework group  C3V[C3(N),3SGV(H)]
 Deg. of freedom     2
 Full point group                 C3V     NOp   6
 Largest Abelian subgroup         CS      NOp   2
 Largest concise Abelian subgroup CS      NOp   2
                         Standard orientation:                         
 ---------------------------------------------------------------------
 Center     Atomic      Atomic             Coordinates (Angstroms)
 Number     Number       Type             X           Y           Z
 ---------------------------------------------------------------------
      1          7           0        0.000000    0.000000    0.115837
      2          1           0       -0.000000    0.939533   -0.270286
      3          1           0       -0.813659   -0.469766   -0.270286
      4          1           0        0.813659   -0.469766   -0.270286
 ---------------------------------------------------------------------
 Rotational constants (GHZ):         296.3801872         296.3801872         189.3594643
 Standard basis: 6-311G(2d,d,p) (5D, 7F)
 There are    25 symmetry adapted cartesian basis functions of A'  symmetry.
 There are    12 symmetry adapted cartesian basis functions of A"  symmetry.
 There are    24 symmetry adapted basis functions of A'  symmetry.
 There are    12 symmetry adapted basis functions of A"  symmetry.
    36 basis functions,    56 primitive gaussians,    37 cartesian basis functions
     5 alpha electrons        5 beta electrons
       nuclear repulsion energy        11.9156170092 Hartrees.
 NAtoms=    4 NActive=    4 NUniq=    2 SFac= 4.00D+00 NAtFMM=   60 NAOKFM=F Big=F
 Integral buffers will be    131072 words long.
 Raffenetti 2 integral format.
 Two-electron integral symmetry is turned on.
 One-electron integrals computed using PRISM.
 NBasis=    36 RedAO= T EigKep=  1.15D-02  NBF=    24    12
 NBsUse=    36 1.00D-06 EigRej= -1.00D+00 NBFU=    24    12
 Initial guess from the checkpoint file:  "/ihome/gmpourmpakis/ant212/NH3.chk"
 B after Tr=    -0.000000    0.000000   -0.000000
         Rot=    1.000000   -0.000000   -0.000000   -0.000000 Ang=   0.00 deg.
 Initial guess orbital symmetries:
       Occupied  (A1) (A1) (E) (E) (A1)
       Virtual   (A1) (E) (E) (E) (E) (A1) (A1) (E) (E) (A1) (E)
                 (E) (A2) (A1) (E) (E) (E) (E) (A1) (E) (E) (A1)
                 (E) (E) (A1) (E) (E) (A1) (E) (E) (A1)
 Keep R1 ints in memory in symmetry-blocked form, NReq=3675634.
 Requested convergence on RMS density matrix=1.00D-08 within 128 cycles.
 Requested convergence on MAX density matrix=1.00D-06.
 Requested convergence on             energy=1.00D-06.
 No special actions if energy rises.
 SCF Done:  E(RB3LYP) =  -56.5760358440     A.U. after    5 cycles
            NFock=  5  Conv=0.17D-08     -V/T= 2.0032
 QCSCF skips out because SCF is already converged.
 Calling FoFJK, ICntrl=      2127 FMM=F ISym2X=1 I1Cent= 0 IOpClX= 0 NMat=1 NMatS=1 NMatT=0.
 ***** Axes restored to original set *****
 -------------------------------------------------------------------
 Center     Atomic                   Forces (Hartrees/Bohr)
 Number     Number              X              Y              Z
 -------------------------------------------------------------------
      1        7           0.000001061   -0.000000000    0.000000000
      2        1          -0.000000354    0.000002829    0.000000000
      3        1          -0.000000354   -0.000001414   -0.000002450
      4        1          -0.000000354   -0.000001414    0.000002450
 -------------------------------------------------------------------
 Cartesian Forces:  Max     0.000002829 RMS     0.000001458

 GradGradGradGradGradGradGradGradGradGradGradGradGradGradGradGradGradGrad
 Berny optimization.
 Using GEDIIS/GDIIS optimizer.
 FormGI is forming the generalized inverse of G from B-inverse, IUseBI=4.
 Internal  Forces:  Max     0.000002751 RMS     0.000001897
 Search for a local minimum.
 Step number   5 out of a maximum of  999
 All quantities printed in internal units (Hartrees-Bohrs-Radians)
 Mixed Optimization -- En-DIIS/RFO-DIIS
 Swapping is turned off.
 Update second derivatives using D2CorX and points    1    2    3    4    5
 DE= -4.34D-09 DEPred=-4.04D-09 R= 1.07D+00
 Trust test= 1.07D+00 RLast= 1.36D-04 DXMaxT set to 3.00D-01
 The second derivative matrix:
                          R1        R2        R3        A1        A2
           R1           0.46632
           R2          -0.01057   0.46632
           R3          -0.01057  -0.01057   0.46632
           A1           0.00088   0.00088   0.00088   0.11522
           A2           0.01283   0.01283   0.01283  -0.03994   0.13220
           A3           0.01283   0.01283   0.01283  -0.03994  -0.02780
           D1          -0.01717  -0.01717  -0.01717  -0.00059  -0.01171
                          A3        D1
           A3           0.13220
           D1          -0.01171   0.02636
 ITU=  0  0  1  1  0
     Eigenvalues ---    0.04472   0.15412   0.16000   0.45029   0.47688
     Eigenvalues ---    0.47688
 En-DIIS/RFO-DIIS/Sim-DIIS IScMMF=       -3 using points:     5    4    3
 RFO step:  Lambda=-7.07250772D-11.
 DIIS inversion failure, remove point   3.
 DIIS inversion failure, remove point   2.
 Use linear search instead of GDIIS.
 RFO step:  Lambda= 0.00000000D+00 EMin= 4.47186770D-02
 Quartic linear search produced a step of  0.09082.
 Iteration  1 RMS(Cart)=  0.00000749 RMS(Int)=  0.00000000
 Iteration  2 RMS(Cart)=  0.00000000 RMS(Int)=  0.00000000
 ClnCor:  largest displacement from symmetrization is 3.25D-08 for atom     4.
 Variable       Old X    -DE/DX   Delta X   Delta X   Delta X     New X
                                 (Linear)    (Quad)   (Total)
    R1        1.91955  -0.00000  -0.00001   0.00000  -0.00001   1.91954
    R2        1.91955  -0.00000  -0.00001   0.00000  -0.00001   1.91954
    R3        1.91955  -0.00000  -0.00001   0.00000  -0.00001   1.91954
    A1        1.85799  -0.00000  -0.00000  -0.00001  -0.00001   1.85798
    A2        1.85799  -0.00000  -0.00000  -0.00001  -0.00001   1.85798
    A3        1.85799  -0.00000  -0.00000  -0.00001  -0.00001   1.85798
    D1       -1.97708   0.00000   0.00000   0.00001   0.00002  -1.97707
         Item               Value     Threshold  Converged?
 Maximum Force            0.000003     0.000015     YES
 RMS     Force            0.000002     0.000010     YES
 Maximum Displacement     0.000010     0.000060     YES
 RMS     Displacement     0.000007     0.000040     YES
 Predicted change in Energy=-3.666275D-11
 Optimization completed.
    -- Stationary point found.
                           ----------------------------
                           !   Optimized Parameters   !
                           ! (Angstroms and Degrees)  !
 --------------------------                            --------------------------
 ! Name  Definition              Value          Derivative Info.                !
 --------------------------------------------------------------------------------
 ! R1    R(1,2)                  1.0158         -DE/DX =    0.0                 !
 ! R2    R(1,3)                  1.0158         -DE/DX =    0.0                 !
 ! R3    R(1,4)                  1.0158         -DE/DX =    0.0                 !
 ! A1    A(2,1,3)              106.4548         -DE/DX =    0.0                 !
 ! A2    A(2,1,4)              106.4548         -DE/DX =    0.0                 !
 ! A3    A(3,1,4)              106.4548         -DE/DX =    0.0                 !
 ! D1    D(2,1,4,3)           -113.2786         -DE/DX =    0.0                 !
 --------------------------------------------------------------------------------
 GradGradGradGradGradGradGradGradGradGradGradGradGradGradGradGradGradGrad

                          Input orientation:                          
 ---------------------------------------------------------------------
 Center     Atomic      Atomic             Coordinates (Angstroms)
 Number     Number       Type             X           Y           Z
 ---------------------------------------------------------------------
      1          7           0       -0.794337    0.104822    0.000000
      2          1           0       -0.408225   -0.834715   -0.000000
      3          1           0       -0.408208    0.574584    0.813659
      4          1           0       -0.408208    0.574584   -0.813659
 ---------------------------------------------------------------------
                    Distance matrix (angstroms):
                    1          2          3          4
     1  N    0.000000
     2  H    1.015782   0.000000
     3  H    1.015782   1.627318   0.000000
     4  H    1.015782   1.627318   1.627318   0.000000
 Stoichiometry    H3N
 Framework group  C3V[C3(N),3SGV(H)]
 Deg. of freedom     2
 Full point group                 C3V     NOp   6
 Largest Abelian subgroup         CS      NOp   2
 Largest concise Abelian subgroup CS      NOp   2
                         Standard orientation:                         
 ---------------------------------------------------------------------
 Center     Atomic      Atomic             Coordinates (Angstroms)
 Number     Number       Type             X           Y           Z
 ---------------------------------------------------------------------
      1          7           0       -0.000000    0.000000    0.115837
      2          1           0        0.000000    0.939533   -0.270286
      3          1           0       -0.813659   -0.469766   -0.270286
      4          1           0        0.813659   -0.469766   -0.270286
 ---------------------------------------------------------------------
 Rotational constants (GHZ):         296.3801872         296.3801872         189.3594643

 **********************************************************************

            Population analysis using the SCF density.

 **********************************************************************

 Orbital symmetries:
       Occupied  (A1) (A1) (E) (E) (A1)
       Virtual   (A1) (E) (E) (E) (E) (A1) (A1) (E) (E) (A1) (E)
                 (E) (A2) (A1) (E) (E) (E) (E) (A1) (E) (E) (A1)
                 (E) (E) (A1) (E) (E) (A1) (E) (E) (A1)
 The electronic state is 1-A1.
 Alpha  occ. eigenvalues --  -14.27848  -0.84732  -0.45632  -0.45632  -0.25848
 Alpha virt. eigenvalues --    0.03900   0.11713   0.11713   0.34476   0.34476
 Alpha virt. eigenvalues --    0.47420   0.59907   0.71880   0.71880   0.89521
 Alpha virt. eigenvalues --    1.11234   1.11234   1.52792   1.55328   1.63853
 Alpha virt. eigenvalues --    1.63853   1.86033   1.86033   2.11590   2.38229
 Alpha virt. eigenvalues --    2.38229   2.53344   2.64552   2.64552   2.78594
 Alpha virt. eigenvalues --    3.04671   3.04671   3.94272   4.71855   4.71855
 Alpha virt. eigenvalues --   35.60336
          Condensed to atoms (all electrons):
               1          2          3          4
     1  N    6.449338   0.372643   0.372643   0.372643
     2  H    0.372643   0.515700  -0.038716  -0.038716
     3  H    0.372643  -0.038716   0.515700  -0.038716
     4  H    0.372643  -0.038716  -0.038716   0.515700
 Mulliken charges:
               1
     1  N   -0.567269
     2  H    0.189090
     3  H    0.189090
     4  H    0.189090
 Sum of Mulliken charges =  -0.00000
 Mulliken charges with hydrogens summed into heavy atoms:
               1
     1  N   -0.000000
 Electronic spatial extent (au):  <R**2>=             26.4128
 Charge=             -0.0000 electrons
 Dipole moment (field-independent basis, Debye):
    X=             -0.0000    Y=             -0.0000    Z=             -1.7158  Tot=              1.7158
 Quadrupole moment (field-independent basis, Debye-Ang):
   XX=             -6.2029   YY=             -6.2029   ZZ=             -8.8969
   XY=              0.0000   XZ=              0.0000   YZ=              0.0000
 Traceless Quadrupole moment (field-independent basis, Debye-Ang):
   XX=              0.8980   YY=              0.8980   ZZ=             -1.7960
   XY=              0.0000   XZ=              0.0000   YZ=              0.0000
 Octapole moment (field-independent basis, Debye-Ang**2):
  XXX=              0.0000  YYY=              0.8070  ZZZ=             -1.4033  XYY=              0.0000
  XXY=             -0.8070  XXZ=             -0.8054  XZZ=              0.0000  YZZ=             -0.0000
  YYZ=             -0.8054  XYZ=             -0.0000
 Hexadecapole moment (field-independent basis, Debye-Ang**3):
 XXXX=            -10.0706 YYYY=            -10.0706 ZZZZ=            -10.1595 XXXY=              0.0000
 XXXZ=              0.0000 YYYX=              0.0000 YYYZ=             -0.3306 ZZZX=             -0.0000
 ZZZY=              0.0000 XXYY=             -3.3569 XXZZ=             -3.4220 YYZZ=             -3.4220
 XXYZ=              0.3306 YYXZ=             -0.0000 ZZXY=              0.0000
 N-N= 1.191561700919D+01 E-N=-1.561027648918D+02  KE= 5.639490827689D+01
 Symmetry A'   KE= 5.373295105027D+01
 Symmetry A"   KE= 2.661957226625D+00

 Test job not archived.
 1\1\GINC-SMP-N33\FOpt\RB3LYP\6-311G(2d,d,p)\H3N1\ANT212\17-Apr-2023\0\
 \# cbs-qb3 scf=(xqc,maxcycle=999) geom=connectivity opt=maxcycle=999 i
 op(1/152=999,1/7=10) freq\\NH3\\0,1\N,-0.7943371188,0.1048222169,0.\H,
 -0.4082251015,-0.8347151184,-0.0000001222\H,-0.4082081249,0.5745838017
 ,0.8136592332\H,-0.4082081249,0.5745840134,-0.8136591109\\Version=ES64
 L-G16RevA.03\State=1-A1\HF=-56.5760358\RMSD=1.742e-09\RMSF=1.458e-06\D
 ipole=0.6750422,-0.0000081,0.\Quadrupole=-1.3352732,0.6676366,0.667636
 6,0.0000241,0.,0.\PG=C03V [C3(N1),3SGV(H1)]\\@


 IT IS BETTER TO THINK YOU ARE HALF DRY THAN TO KNOW YOU
 ARE ALL WET.  -- SNOOPY
 Job cpu time:       0 days  0 hours  0 minutes 19.3 seconds.
 Elapsed time:       0 days  0 hours  0 minutes  5.7 seconds.
 File lengths (MBytes):  RWF=      6 Int=      0 D2E=      0 Chk=      2 Scr=      1
 Normal termination of Gaussian 16 at Mon Apr 17 14:39:57 2023.
 Link1:  Proceeding to internal job step number  2.
 --------------------------------------------------------------
 #N Geom=AllCheck Guess=TCheck SCRF=Check Test B3LYP/CBSB7 Freq
 --------------------------------------------------------------
 1/6=999,10=4,29=7,30=1,38=1,40=1/1,3;
 2/12=2,40=1/2;
 3/5=4,6=6,7=700,11=2,14=-4,25=1,30=1,70=2,71=2,74=-5,116=-2,140=1/1,2,3;
 4/5=101/1;
 5/5=2,7=999,8=3,13=1,38=6,98=1/2,8;
 8/6=4,10=90,11=11/1;
 11/6=1,8=1,9=11,15=111,16=1/1,2,10;
 10/6=1/2;
 6/7=2,8=2,9=2,10=2,28=1/1;
 7/8=1,10=1,25=1/1,2,3,16;
 1/6=999,10=4,30=1/3;
 99//99;
 Structure from the checkpoint file:  "/ihome/gmpourmpakis/ant212/NH3.chk"
 ---
 NH3
 ---
 Charge =  0 Multiplicity = 1
 Redundant internal coordinates found in file.  (old form).
 N,0,-0.7943371188,0.1048222169,0.
 H,0,-0.4082251015,-0.8347151184,-0.0000001222
 H,0,-0.4082081249,0.5745838017,0.8136592332
 H,0,-0.4082081249,0.5745840134,-0.8136591109
 Recover connectivity data from disk.

 GradGradGradGradGradGradGradGradGradGradGradGradGradGradGradGradGradGrad
 Berny optimization.
 Initialization pass.
                           ----------------------------
                           !    Initial Parameters    !
                           ! (Angstroms and Degrees)  !
 --------------------------                            --------------------------
 ! Name  Definition              Value          Derivative Info.                !
 --------------------------------------------------------------------------------
 ! R1    R(1,2)                  1.0158         calculate D2E/DX2 analytically  !
 ! R2    R(1,3)                  1.0158         calculate D2E/DX2 analytically  !
 ! R3    R(1,4)                  1.0158         calculate D2E/DX2 analytically  !
 ! A1    A(2,1,3)              106.4548         calculate D2E/DX2 analytically  !
 ! A2    A(2,1,4)              106.4548         calculate D2E/DX2 analytically  !
 ! A3    A(3,1,4)              106.4548         calculate D2E/DX2 analytically  !
 ! D1    D(2,1,4,3)           -113.2786         calculate D2E/DX2 analytically  !
 --------------------------------------------------------------------------------
 Trust Radius=3.00D-01 FncErr=1.00D-07 GrdErr=1.00D-07 EigMax=2.50D+02 EigMin=1.00D-04
 Number of steps in this run=      2 maximum allowed number of steps=      2.
 GradGradGradGradGradGradGradGradGradGradGradGradGradGradGradGradGradGrad

                          Input orientation:                          
 ---------------------------------------------------------------------
 Center     Atomic      Atomic             Coordinates (Angstroms)
 Number     Number       Type             X           Y           Z
 ---------------------------------------------------------------------
      1          7           0       -0.794337    0.104822    0.000000
      2          1           0       -0.408225   -0.834715   -0.000000
      3          1           0       -0.408208    0.574584    0.813659
      4          1           0       -0.408208    0.574584   -0.813659
 ---------------------------------------------------------------------
                    Distance matrix (angstroms):
                    1          2          3          4
     1  N    0.000000
     2  H    1.015782   0.000000
     3  H    1.015782   1.627318   0.000000
     4  H    1.015782   1.627318   1.627318   0.000000
 Stoichiometry    H3N
 Framework group  C3V[C3(N),3SGV(H)]
 Deg. of freedom     2
 Full point group                 C3V     NOp   6
 Largest Abelian subgroup         CS      NOp   2
 Largest concise Abelian subgroup CS      NOp   2
                         Standard orientation:                         
 ---------------------------------------------------------------------
 Center     Atomic      Atomic             Coordinates (Angstroms)
 Number     Number       Type             X           Y           Z
 ---------------------------------------------------------------------
      1          7           0        0.000000    0.000000    0.115837
      2          1           0       -0.000000    0.939533   -0.270286
      3          1           0       -0.813659   -0.469766   -0.270286
      4          1           0        0.813659   -0.469766   -0.270286
 ---------------------------------------------------------------------
 Rotational constants (GHZ):         296.3801872         296.3801872         189.3594643
 Standard basis: 6-311G(2d,d,p) (5D, 7F)
 There are    25 symmetry adapted cartesian basis functions of A'  symmetry.
 There are    12 symmetry adapted cartesian basis functions of A"  symmetry.
 There are    24 symmetry adapted basis functions of A'  symmetry.
 There are    12 symmetry adapted basis functions of A"  symmetry.
    36 basis functions,    56 primitive gaussians,    37 cartesian basis functions
     5 alpha electrons        5 beta electrons
       nuclear repulsion energy        11.9156170092 Hartrees.
 NAtoms=    4 NActive=    4 NUniq=    2 SFac= 4.00D+00 NAtFMM=   60 NAOKFM=F Big=F
 Integral buffers will be    131072 words long.
 Raffenetti 2 integral format.
 Two-electron integral symmetry is turned on.
 One-electron integrals computed using PRISM.
 NBasis=    36 RedAO= T EigKep=  1.15D-02  NBF=    24    12
 NBsUse=    36 1.00D-06 EigRej= -1.00D+00 NBFU=    24    12
 Initial guess from the checkpoint file:  "/ihome/gmpourmpakis/ant212/NH3.chk"
 B after Tr=    -0.000000   -0.000000   -0.000000
         Rot=    1.000000    0.000000   -0.000000    0.000000 Ang=   0.00 deg.
 Initial guess orbital symmetries:
       Occupied  (A1) (A1) (E) (E) (A1)
       Virtual   (A1) (E) (E) (E) (E) (A1) (A1) (E) (E) (A1) (E)
                 (E) (A2) (A1) (E) (E) (E) (E) (A1) (E) (E) (A1)
                 (E) (E) (A1) (E) (E) (A1) (E) (E) (A1)
 Keep R1 ints in memory in symmetry-blocked form, NReq=3675634.
 Requested convergence on RMS density matrix=1.00D-08 within 128 cycles.
 Requested convergence on MAX density matrix=1.00D-06.
 Requested convergence on             energy=1.00D-06.
 No special actions if energy rises.
 SCF Done:  E(RB3LYP) =  -56.5760358440     A.U. after    1 cycles
            NFock=  1  Conv=0.34D-09     -V/T= 2.0032
 QCSCF skips out because SCF is already converged.
 DoSCS=F DFT=T ScalE2(SS,OS)=  1.000000  1.000000
 Range of M.O.s used for correlation:     1    36
 NBasis=    36 NAE=     5 NBE=     5 NFC=     0 NFV=     0
 NROrb=     36 NOA=     5 NOB=     5 NVA=    31 NVB=    31
 Symmetrizing basis deriv contribution to polar:
 IMax=3 JMax=2 DiffMx= 0.00D+00
 G2DrvN: will do     5 centers at a time, making    1 passes.
 Calling FoFCou, ICntrl=  3107 FMM=F I1Cent=   0 AccDes= 0.00D+00.
 End of G2Drv F.D. properties file   721 does not exist.
 End of G2Drv F.D. properties file   722 does not exist.
 End of G2Drv F.D. properties file   788 does not exist.
          IDoAtm=1111
          Differentiating once with respect to electric field.
                with respect to dipole field.
          Differentiating once with respect to nuclear coordinates.
 Keep R1 ints in memory in symmetry-blocked form, NReq=3665358.
          There are     9 degrees of freedom in the 1st order CPHF.  IDoFFX=4 NUNeed=     9.
      9 vectors produced by pass  0 Test12= 1.72D-15 1.11D-08 XBig12= 4.97D+00 1.44D+00.
 AX will form     9 AO Fock derivatives at one time.
      9 vectors produced by pass  1 Test12= 1.72D-15 1.11D-08 XBig12= 5.35D-01 3.44D-01.
      9 vectors produced by pass  2 Test12= 1.72D-15 1.11D-08 XBig12= 6.75D-03 3.32D-02.
      9 vectors produced by pass  3 Test12= 1.72D-15 1.11D-08 XBig12= 1.15D-05 1.49D-03.
      9 vectors produced by pass  4 Test12= 1.72D-15 1.11D-08 XBig12= 1.72D-08 4.51D-05.
      4 vectors produced by pass  5 Test12= 1.72D-15 1.11D-08 XBig12= 9.06D-12 9.42D-07.
      1 vectors produced by pass  6 Test12= 1.72D-15 1.11D-08 XBig12= 8.05D-15 3.67D-08.
 InvSVY:  IOpt=1 It=  1 EMax= 6.66D-16
 Solved reduced A of dimension    50 with     9 vectors.
 Isotropic polarizability for W=    0.000000        9.57 Bohr**3.
 End of Minotr F.D. properties file   721 does not exist.
 End of Minotr F.D. properties file   722 does not exist.
 End of Minotr F.D. properties file   788 does not exist.

 **********************************************************************

            Population analysis using the SCF density.

 **********************************************************************

 Orbital symmetries:
       Occupied  (A1) (A1) (E) (E) (A1)
       Virtual   (A1) (E) (E) (E) (E) (A1) (A1) (E) (E) (A1) (E)
                 (E) (A2) (A1) (E) (E) (E) (E) (A1) (E) (E) (A1)
                 (E) (E) (A1) (E) (E) (A1) (E) (E) (A1)
 The electronic state is 1-A1.
 Alpha  occ. eigenvalues --  -14.27848  -0.84732  -0.45632  -0.45632  -0.25848
 Alpha virt. eigenvalues --    0.03900   0.11713   0.11713   0.34476   0.34476
 Alpha virt. eigenvalues --    0.47420   0.59907   0.71880   0.71880   0.89521
 Alpha virt. eigenvalues --    1.11234   1.11234   1.52792   1.55328   1.63853
 Alpha virt. eigenvalues --    1.63853   1.86033   1.86033   2.11590   2.38229
 Alpha virt. eigenvalues --    2.38229   2.53344   2.64552   2.64552   2.78594
 Alpha virt. eigenvalues --    3.04671   3.04671   3.94272   4.71855   4.71855
 Alpha virt. eigenvalues --   35.60336
          Condensed to atoms (all electrons):
               1          2          3          4
     1  N    6.449338   0.372643   0.372643   0.372643
     2  H    0.372643   0.515700  -0.038716  -0.038716
     3  H    0.372643  -0.038716   0.515700  -0.038716
     4  H    0.372643  -0.038716  -0.038716   0.515700
 Mulliken charges:
               1
     1  N   -0.567269
     2  H    0.189090
     3  H    0.189090
     4  H    0.189090
 Sum of Mulliken charges =  -0.00000
 Mulliken charges with hydrogens summed into heavy atoms:
               1
     1  N   -0.000000
 APT charges:
               1
     1  N   -0.412884
     2  H    0.137628
     3  H    0.137628
     4  H    0.137628
 Sum of APT charges =  -0.00000
 APT charges with hydrogens summed into heavy atoms:
               1
     1  N   -0.000000
 Electronic spatial extent (au):  <R**2>=             26.4128
 Charge=             -0.0000 electrons
 Dipole moment (field-independent basis, Debye):
    X=             -0.0000    Y=              0.0000    Z=             -1.7158  Tot=              1.7158
 Quadrupole moment (field-independent basis, Debye-Ang):
   XX=             -6.2029   YY=             -6.2029   ZZ=             -8.8969
   XY=             -0.0000   XZ=              0.0000   YZ=             -0.0000
 Traceless Quadrupole moment (field-independent basis, Debye-Ang):
   XX=              0.8980   YY=              0.8980   ZZ=             -1.7960
   XY=             -0.0000   XZ=              0.0000   YZ=             -0.0000
 Octapole moment (field-independent basis, Debye-Ang**2):
  XXX=             -0.0000  YYY=              0.8070  ZZZ=             -1.4033  XYY=              0.0000
  XXY=             -0.8070  XXZ=             -0.8054  XZZ=              0.0000  YZZ=             -0.0000
  YYZ=             -0.8054  XYZ=              0.0000
 Hexadecapole moment (field-independent basis, Debye-Ang**3):
 XXXX=            -10.0706 YYYY=            -10.0706 ZZZZ=            -10.1595 XXXY=              0.0000
 XXXZ=              0.0000 YYYX=             -0.0000 YYYZ=             -0.3306 ZZZX=             -0.0000
 ZZZY=             -0.0000 XXYY=             -3.3569 XXZZ=             -3.4220 YYZZ=             -3.4220
 XXYZ=              0.3306 YYXZ=             -0.0000 ZZXY=              0.0000
 N-N= 1.191561700919D+01 E-N=-1.561027647224D+02  KE= 5.639490819787D+01
 Symmetry A'   KE= 5.373295099034D+01
 Symmetry A"   KE= 2.661957207531D+00
  Exact polarizability:  10.325  -0.000  10.325   0.000   0.000   8.068
 Approx polarizability:  12.732  -0.000  12.732   0.000   0.000   9.409
 Calling FoFJK, ICntrl=    100127 FMM=F ISym2X=1 I1Cent= 0 IOpClX= 0 NMat=1 NMatS=1 NMatT=0.
 Full mass-weighted force constant matrix:
 Low frequencies ---   -0.0245   -0.0169   -0.0009    5.6718    6.9943    6.9973
 Low frequencies --- 1071.5778 1681.8357 1681.8357
 Diagonal vibrational polarizability:
        0.1791882       0.1791892       3.9455281
 Harmonic frequencies (cm**-1), IR intensities (KM/Mole), Raman scattering
 activities (A**4/AMU), depolarization ratios for plane and unpolarized
 incident light, reduced masses (AMU), force constants (mDyne/A),
 and normal coordinates:
                      1                      2                      3
                     A1                      E                      E
 Frequencies --   1071.5778              1681.8357              1681.8357
 Red. masses --      1.1811                 1.0658                 1.0658
 Frc consts  --      0.7991                 1.7762                 1.7762
 IR Inten    --    168.2801                18.8168                18.8169
  Atom  AN      X      Y      Z        X      Y      Z        X      Y      Z
     1   7    -0.00  -0.00  -0.12    -0.07  -0.00   0.00     0.00  -0.07   0.00
     2   1     0.00   0.21   0.53     0.76  -0.00  -0.00    -0.00  -0.14  -0.25
     3   1    -0.18  -0.10   0.53     0.08  -0.39   0.22    -0.39   0.54   0.13
     4   1     0.18  -0.10   0.53     0.08   0.39  -0.22     0.39   0.54   0.13
                      4                      5                      6
                     A1                      E                      E
 Frequencies --   3460.9317              3579.9882              3579.9883
 Red. masses --      1.0264                 1.0890                 1.0890
 Frc consts  --      7.2436                 8.2234                 8.2234
 IR Inten    --      0.7550                 0.0780                 0.0780
  Atom  AN      X      Y      Z        X      Y      Z        X      Y      Z
     1   7    -0.00   0.00   0.04     0.00  -0.08   0.00    -0.08  -0.00  -0.00
     2   1    -0.00   0.55  -0.18     0.00   0.76  -0.30    -0.02   0.00  -0.00
     3   1    -0.48  -0.27  -0.18     0.34   0.17   0.15     0.56   0.34   0.26
     4   1     0.48  -0.27  -0.18    -0.34   0.17   0.15     0.56  -0.34  -0.26

 -------------------
 - Thermochemistry -
 -------------------
 Temperature   298.150 Kelvin.  Pressure   1.00000 Atm.
 Atom     1 has atomic number  7 and mass  14.00307
 Atom     2 has atomic number  1 and mass   1.00783
 Atom     3 has atomic number  1 and mass   1.00783
 Atom     4 has atomic number  1 and mass   1.00783
 Molecular mass:    17.02655 amu.
 Principal axes and moments of inertia in atomic units:
                           1         2         3
     Eigenvalues --     6.08928   6.08928   9.53077
           X           -0.52933   0.84842   0.00000
           Y            0.84842   0.52933   0.00000
           Z           -0.00000  -0.00000   1.00000
 This molecule is an oblate symmetric top.
 Rotational symmetry number  3.
 Rotational temperatures (Kelvin)     14.22401    14.22401     9.08782
 Rotational constants (GHZ):         296.38019   296.38019   189.35946
 Zero-point vibrational energy      90055.8 (Joules/Mol)
                                   21.52386 (Kcal/Mol)
 Vibrational temperatures:   1541.76  2419.79  2419.79  4979.51  5150.80
          (Kelvin)           5150.80
 
 Zero-point correction=                           0.034300 (Hartree/Particle)
 Thermal correction to Energy=                    0.037165
 Thermal correction to Enthalpy=                  0.038110
 Thermal correction to Gibbs Free Energy=         0.016267
 Sum of electronic and zero-point Energies=            -56.541735
 Sum of electronic and thermal Energies=               -56.538870
 Sum of electronic and thermal Enthalpies=             -56.537926
 Sum of electronic and thermal Free Energies=          -56.559769
 
                     E (Thermal)             CV                S
                      KCal/Mol        Cal/Mol-Kelvin    Cal/Mol-Kelvin
 Total                   23.322              6.345             45.971
 Electronic               0.000              0.000              0.000
 Translational            0.889              2.981             34.441
 Rotational               0.889              2.981             11.450
 Vibrational             21.544              0.384              0.081
                       Q            Log10(Q)             Ln(Q)
 Total Bot       0.329331D-07         -7.482367        -17.228788
 Total V=0       0.197120D+09          8.294731         19.099323
 Vib (Bot)       0.168126D-15        -15.774365        -36.321818
 Vib (V=0)       0.100631D+01          0.002733          0.006292
 Electronic      0.100000D+01          0.000000          0.000000
 Translational   0.276149D+07          6.441144         14.831282
 Rotational      0.709339D+02          1.850854          4.261749
 ***** Axes restored to original set *****
 -------------------------------------------------------------------
 Center     Atomic                   Forces (Hartrees/Bohr)
 Number     Number              X              Y              Z
 -------------------------------------------------------------------
      1        7           0.000001065   -0.000000000    0.000000000
      2        1          -0.000000355    0.000002831    0.000000000
      3        1          -0.000000355   -0.000001415   -0.000002451
      4        1          -0.000000355   -0.000001415    0.000002451
 -------------------------------------------------------------------
 Cartesian Forces:  Max     0.000002831 RMS     0.000001459
 FormGI is forming the generalized inverse of G from B-inverse, IUseBI=4.

 GradGradGradGradGradGradGradGradGradGradGradGradGradGradGradGradGradGrad
 Berny optimization.
 Internal  Forces:  Max     0.000002753 RMS     0.000001899
 Search for a local minimum.
 Step number   1 out of a maximum of    2
 All quantities printed in internal units (Hartrees-Bohrs-Radians)
 Second derivative matrix not updated -- analytic derivatives used.
 The second derivative matrix:
                          R1        R2        R3        A1        A2
           R1           0.44785
           R2          -0.00144   0.44785
           R3          -0.00144  -0.00144   0.44785
           A1           0.00834   0.00834  -0.00781   0.05352
           A2           0.02041  -0.00232   0.02302  -0.04176   0.13541
           A3          -0.00232   0.02041   0.02302  -0.04176  -0.02121
           D1          -0.01759  -0.01759  -0.01179  -0.02328  -0.00383
                          A3        D1
           A3           0.13541
           D1          -0.00383   0.02986
 ITU=  0
     Eigenvalues ---    0.04349   0.14742   0.15486   0.44915   0.45104
     Eigenvalues ---    0.45178
 Angle between quadratic step and forces=  51.39 degrees.
 Linear search not attempted -- first point.
 Iteration  1 RMS(Cart)=  0.00000756 RMS(Int)=  0.00000000
 Iteration  2 RMS(Cart)=  0.00000000 RMS(Int)=  0.00000000
 ClnCor:  largest displacement from symmetrization is 5.20D-12 for atom     3.
 Variable       Old X    -DE/DX   Delta X   Delta X   Delta X     New X
                                 (Linear)    (Quad)   (Total)
    R1        1.91955  -0.00000   0.00000  -0.00001  -0.00001   1.91954
    R2        1.91955  -0.00000   0.00000  -0.00001  -0.00001   1.91954
    R3        1.91955  -0.00000   0.00000  -0.00001  -0.00001   1.91954
    A1        1.85799  -0.00000   0.00000  -0.00001  -0.00001   1.85798
    A2        1.85799  -0.00000   0.00000  -0.00001  -0.00001   1.85798
    A3        1.85799  -0.00000   0.00000  -0.00001  -0.00001   1.85798
    D1       -1.97708   0.00000   0.00000   0.00002   0.00002  -1.97707
         Item               Value     Threshold  Converged?
 Maximum Force            0.000003     0.000450     YES
 RMS     Force            0.000002     0.000300     YES
 Maximum Displacement     0.000010     0.001800     YES
 RMS     Displacement     0.000008     0.001200     YES
 Predicted change in Energy=-3.682625D-11
 Optimization completed.
    -- Stationary point found.
                           ----------------------------
                           !   Optimized Parameters   !
                           ! (Angstroms and Degrees)  !
 --------------------------                            --------------------------
 ! Name  Definition              Value          Derivative Info.                !
 --------------------------------------------------------------------------------
 ! R1    R(1,2)                  1.0158         -DE/DX =    0.0                 !
 ! R2    R(1,3)                  1.0158         -DE/DX =    0.0                 !
 ! R3    R(1,4)                  1.0158         -DE/DX =    0.0                 !
 ! A1    A(2,1,3)              106.4548         -DE/DX =    0.0                 !
 ! A2    A(2,1,4)              106.4548         -DE/DX =    0.0                 !
 ! A3    A(3,1,4)              106.4548         -DE/DX =    0.0                 !
 ! D1    D(2,1,4,3)           -113.2786         -DE/DX =    0.0                 !
 --------------------------------------------------------------------------------
 GradGradGradGradGradGradGradGradGradGradGradGradGradGradGradGradGradGrad


 ----------------------------------------------------------------------

 Electric dipole moment (input orientation):
 (Debye = 10**-18 statcoulomb cm , SI units = C m)
                  (au)            (Debye)         (10**-30 SI)
   Tot        0.675042D+00      0.171579D+01      0.572325D+01
   x          0.675042D+00      0.171579D+01      0.572325D+01
   y          0.000000D+00      0.000000D+00      0.000000D+00
   z          0.000000D+00      0.000000D+00      0.000000D+00

 Dipole polarizability, Alpha (input orientation).
 (esu units = cm**3 , SI units = C**2 m**2 J**-1)
 Alpha(0;0):
               (au)            (10**-24 esu)      (10**-40 SI)
   iso        0.957225D+01      0.141846D+01      0.157825D+01
   aniso      0.225697D+01      0.334448D+00      0.372124D+00
   xx         0.806760D+01      0.119549D+01      0.133017D+01
   yx         0.497104D-04      0.736632D-05      0.819613D-05
   yy         0.103246D+02      0.152994D+01      0.170229D+01
   zx         0.000000D+00      0.000000D+00      0.000000D+00
   zy         0.000000D+00      0.000000D+00      0.000000D+00
   zz         0.103246D+02      0.152994D+01      0.170229D+01

 ----------------------------------------------------------------------

 Dipole orientation:
     7          0.00000239          0.19806720         -1.50108199
     1         -0.00001877         -1.57739226         -0.77141464
     1         -1.53758003          1.08581525         -0.77141464
     1          1.53760596          1.08577861         -0.77141464

 Electric dipole moment (dipole orientation):
 (Debye = 10**-18 statcoulomb cm , SI units = C m)
                  (au)            (Debye)         (10**-30 SI)
   Tot        0.675042D+00      0.171579D+01      0.572325D+01
   x          0.000000D+00      0.000000D+00      0.000000D+00
   y          0.000000D+00      0.000000D+00      0.000000D+00
   z          0.675042D+00      0.171579D+01      0.572325D+01

 Dipole polarizability, Alpha (dipole orientation).
 (esu units = cm**3 , SI units = C**2 m**2 J**-1)
 Alpha(0;0):
               (au)            (10**-24 esu)      (10**-40 SI)
   iso        0.957225D+01      0.141846D+01      0.157825D+01
   aniso      0.225697D+01      0.334448D+00      0.372124D+00
   xx         0.103246D+02      0.152994D+01      0.170229D+01
   yx         0.000000D+00      0.000000D+00      0.000000D+00
   yy         0.103246D+02      0.152994D+01      0.170229D+01
   zx         0.000000D+00      0.000000D+00      0.000000D+00
   zy         0.225226D-04      0.333751D-05      0.371348D-05
   zz         0.806760D+01      0.119549D+01      0.133017D+01

[...]
 Alpha virt. eigenvalues --    2.41670   2.41670   2.71004   2.98119   2.98119
 Alpha virt. eigenvalues --    3.11120   3.51856   3.51856   4.93233
          Condensed to atoms (all electrons):
               1          2          3          4
     1  N    6.487824   0.384720   0.384720   0.384720
     2  H    0.384720   0.467812  -0.033264  -0.033264
     3  H    0.384720  -0.033264   0.467812  -0.033264
     4  H    0.384720  -0.033264  -0.033264   0.467812
 Mulliken charges:
               1
     1  N   -0.641985
     2  H    0.213995
     3  H    0.213995
     4  H    0.213995
 Sum of Mulliken charges =  -0.00000
 Mulliken charges with hydrogens summed into heavy atoms:
               1
     1  N   -0.000000
 Electronic spatial extent (au):  <R**2>=             26.8559
 Charge=             -0.0000 electrons
 Dipole moment (field-independent basis, Debye):
    X=             -0.0000    Y=             -0.0000    Z=             -1.8842  Tot=              1.8842
 Quadrupole moment (field-independent basis, Debye-Ang):
   XX=             -6.2323   YY=             -6.2323   ZZ=             -9.4340
   XY=             -0.0000   XZ=              0.0000   YZ=              0.0000
 Traceless Quadrupole moment (field-independent basis, Debye-Ang):
   XX=              1.0672   YY=              1.0672   ZZ=             -2.1344
   XY=             -0.0000   XZ=              0.0000   YZ=              0.0000
 Octapole moment (field-independent basis, Debye-Ang**2):
  XXX=             -0.0000  YYY=              0.9271  ZZZ=             -1.8908  XYY=              0.0000
  XXY=             -0.9271  XXZ=             -0.9887  XZZ=              0.0000  YZZ=              0.0000
  YYZ=             -0.9887  XYZ=              0.0000
 Hexadecapole moment (field-independent basis, Debye-Ang**3):
 XXXX=             -9.9535 YYYY=             -9.9535 ZZZZ=            -13.0013 XXXY=              0.0000
 XXXZ=              0.0000 YYYX=              0.0000 YYYZ=             -0.3642 ZZZX=              0.0000
 ZZZY=             -0.0000 XXYY=             -3.3178 XXZZ=             -3.8929 YYZZ=             -3.8929
 XXYZ=              0.3642 YYXZ=             -0.0000 ZZXY=              0.0000
 N-N= 1.191561700919D+01 E-N=-1.554761913569D+02  KE= 5.601045813178D+01
 Symmetry A'   KE= 5.341651884820D+01
 Symmetry A"   KE= 2.593939283584D+00

 Test job not archived.
 1\1\GINC-SMP-N33\SP\RMP4SDQ-FC\CBSB4\H3N1\ANT212\17-Apr-2023\0\\#N Geo
 m=AllCheck Guess=TCheck SCRF=Check Test MP4SDQ/CBSB4\\NH3\\0,1\N,0,-0.
 7943371188,0.1048222169,0.\H,0,-0.4082251015,-0.8347151184,-0.00000012
 22\H,0,-0.4082081249,0.5745838017,0.8136592332\H,0,-0.4082081249,0.574
 5840134,-0.8136591109\\Version=ES64L-G16RevA.03\State=1-A1\HF=-56.2006
 907\MP2=-56.394751\MP3=-56.4065363\MP4D=-56.4105891\MP4DQ=-56.408027\M
 P4SDQ=-56.4090228\RMSD=3.780e-09\PG=C03V [C3(N1),3SGV(H1)]\\@


 A great many people think they are thinking when they
 are merely rearranging their prejudices.
                               -- William James
 Job cpu time:       0 days  0 hours  0 minutes  3.6 seconds.
 Elapsed time:       0 days  0 hours  0 minutes  1.1 seconds.
 File lengths (MBytes):  RWF=     19 Int=      0 D2E=      0 Chk=      2 Scr=      1
 Normal termination of Gaussian 16 at Mon Apr 17 14:40:02 2023.
 Link1:  Proceeding to internal job step number  5.
 ----------------------------------------------------------------------
 #N Geom=AllCheck Guess=TCheck SCRF=Check Test MP2/CBSB3 CBSExtrap=(NMi
 n=10,MinPop)
 ----------------------------------------------------------------------
 1/6=999,29=7,38=1,40=1,172=1/1;
 2/12=2,40=1/2;
 3/5=12,11=9,14=-4,25=1,30=1,70=2,116=-2/1,2,3;
 4/5=101/1;
 5/5=2,7=999,8=3,13=1,38=6/2,8;
 8/10=1/1;
 9/16=-3,75=2,81=10,83=4/6,4;
 6/7=2,8=2,9=2,10=2/1;
 99/5=1,9=1/99;
 Structure from the checkpoint file:  "/ihome/gmpourmpakis/ant212/NH3.chk"
 ---
 NH3
 ---
 Charge =  0 Multiplicity = 1
 Redundant internal coordinates found in file.  (old form).
 N,0,-0.7943371188,0.1048222169,0.
 H,0,-0.4082251015,-0.8347151184,-0.0000001222
 H,0,-0.4082081249,0.5745838017,0.8136592332
 H,0,-0.4082081249,0.5745840134,-0.8136591109
 Recover connectivity data from disk.
                           ----------------------------
                           !    Current Parameters    !
                           ! (Angstroms and Degrees)  !
 --------------------------                            --------------------------
 ! Name  Definition              Value                                          !
 --------------------------------------------------------------------------------
 ! R1    R(1,2)                  1.0158                                         !
 ! R2    R(1,3)                  1.0158                                         !
 ! R3    R(1,4)                  1.0158                                         !
 ! A1    A(2,1,3)              106.4548                                         !
 ! A2    A(2,1,4)              106.4548                                         !
 ! A3    A(3,1,4)              106.4548                                         !
 ! D1    D(2,1,4,3)           -113.2786                                         !
 --------------------------------------------------------------------------------
                          Input orientation:                          
 ---------------------------------------------------------------------
 Center     Atomic      Atomic             Coordinates (Angstroms)
 Number     Number       Type             X           Y           Z
 ---------------------------------------------------------------------
      1          7           0       -0.794337    0.104822    0.000000
      2          1           0       -0.408225   -0.834715   -0.000000
      3          1           0       -0.408208    0.574584    0.813659
      4          1           0       -0.408208    0.574584   -0.813659
 ---------------------------------------------------------------------
                    Distance matrix (angstroms):
                    1          2          3          4
     1  N    0.000000
     2  H    1.015782   0.000000
     3  H    1.015782   1.627318   0.000000
     4  H    1.015782   1.627318   1.627318   0.000000
 Stoichiometry    H3N
 Framework group  C3V[C3(N),3SGV(H)]
 Deg. of freedom     2
 Full point group                 C3V     NOp   6
 Largest Abelian subgroup         CS      NOp   2
 Largest concise Abelian subgroup CS      NOp   2
                         Standard orientation:                         
 ---------------------------------------------------------------------
 Center     Atomic      Atomic             Coordinates (Angstroms)
 Number     Number       Type             X           Y           Z
 ---------------------------------------------------------------------
      1          7           0        0.000000    0.000000    0.115837
      2          1           0        0.000000    0.939533   -0.270286
      3          1           0       -0.813659   -0.469766   -0.270286
      4          1           0        0.813659   -0.469766   -0.270286
 ---------------------------------------------------------------------
 Rotational constants (GHZ):         296.3801872         296.3801872         189.3594643
 Standard basis: CBSB3 (5D, 7F)
 There are    45 symmetry adapted cartesian basis functions of A'  symmetry.
 There are    24 symmetry adapted cartesian basis functions of A"  symmetry.
 There are    41 symmetry adapted basis functions of A'  symmetry.
 There are    23 symmetry adapted basis functions of A"  symmetry.
    64 basis functions,    88 primitive gaussians,    69 cartesian basis functions
     5 alpha electrons        5 beta electrons
       nuclear repulsion energy        11.9156170092 Hartrees.
 NAtoms=    4 NActive=    4 NUniq=    2 SFac= 4.00D+00 NAtFMM=   60 NAOKFM=F Big=F
 Integral buffers will be    131072 words long.
 Raffenetti 1 integral format.
 Two-electron integral symmetry is turned on.
 One-electron integrals computed using PRISM.
 NBasis=    64 RedAO= T EigKep=  1.69D-03  NBF=    41    23
 NBsUse=    64 1.00D-06 EigRej= -1.00D+00 NBFU=    41    23
 Initial guess from the checkpoint file:  "/ihome/gmpourmpakis/ant212/NH3.chk"
 B after Tr=     0.000000    0.000000    0.000000
         Rot=    1.000000   -0.000000    0.000000    0.000000 Ang=   0.00 deg.
 Initial guess orbital symmetries:
       Occupied  (A1) (A1) (E) (E) (A1)
       Virtual   (A1) (E) (A1) (A1) (E) (E) (A1) (E) (A1) (E) (A1)
                 (A1) (E) (A1) (A1) (E) (E) (A1) (E) (E) (A1) (E)
                 (A1) (E) (A1) (E) (E) (A1) (A1) (E) (A1) (E) (E)
                 (A1) (A1) (E) (E) (E) (E) (E) (E) (A2) (E) (E)
                 (E) (E) (E) (E) (A2) (E) (E) (E) (A2) (E) (E)
                 (E) (E) (E) (E)
 Keep R1 ints in memory in symmetry-blocked form, NReq=4132347.
 Requested convergence on RMS density matrix=1.00D-08 within 128 cycles.
 Requested convergence on MAX density matrix=1.00D-06.
 Requested convergence on             energy=1.00D-06.
 No special actions if energy rises.
 SCF Done:  E(RHF) =  -56.2177477979     A.U. after   10 cycles
            NFock= 10  Conv=0.15D-08     -V/T= 2.0014
 QCSCF skips out because SCF is already converged.
 ExpMin= 3.60D-02 ExpMax= 6.29D+03 ExpMxC= 9.49D+02 IAcc=3 IRadAn=         5 AccDes= 0.00D+00
 HarFok:  IExCor=  205 AccDes= 0.00D+00 IRadAn=         5 IDoV=-2 UseB2=F ITyADJ=14
 ICtDFT= 12500011 ScaDFX=  1.000000  1.000000  1.000000  1.000000
 Range of M.O.s used for correlation:     2    64
 NBasis=    64 NAE=     5 NBE=     5 NFC=     1 NFV=     0
 NROrb=     63 NOA=     4 NOB=     4 NVA=    59 NVB=    59

 **** Warning!!: The largest alpha MO coefficient is  0.10847512D+02

 Disk-based method using OVN memory for  4 occupieds at a time.
 Permanent disk used for amplitudes and <ij||ab> integrals=      131924 words.
 Estimated scratch disk usage=     1832520 words.
 Actual    scratch disk usage=     1832520 words.
 JobTyp=1 Pass  1:  I=   1 to   4 NPSUse=  4 ParTrn=T ParDer=T DoDerP=F.
 (rs|ai) integrals will be sorted in core.
 Spin components of T(2) and E(2):
     alpha-alpha T2 =       0.7744779810D-02 E2=     -0.2591036539D-01
     alpha-beta  T2 =       0.4972708907D-01 E2=     -0.1786404687D+00
     beta-beta   T2 =       0.7744779810D-02 E2=     -0.2591036539D-01
 ANorm=    0.1032093333D+01
 E2 =    -0.2304611994D+00 EUMP2 =    -0.56448208997299D+02

 Complete Basis Set (CBS) Extrapolation:
 M. R. Nyden and G. A. Petersson, JCP 75, 1843 (1981)
 G. A. Petersson and M. A. Al-Laham, JCP 94, 6081 (1991)
 G. A. Petersson, T. Tensfeldt, and J. A. Montgomery, JCP 94, 6091 (1991)
 J. A. Montgomery, J. W. Ochterski, and G. A. Petersson, JCP 101, 5900 (1994)

 
 Minimum Number of PNO for Extrapolation =  10
 Absolute Overlaps: IRadAn =         5
 LocTrn: ILocal=3 LocCor=F DoCore=F.
 LocMO: Using population method
 Initial Trace= 0.40000000D+01 Initial TraceA= 0.23318191D+01
 RMSG= 0.53087947D-10
 There are a total of       91700 grid points.
 ElSum from         orbitals=        4.9999999940
 E2(CBS)=      -0.253751 CBS-Int=       0.007976 OIii=       2.196243

 **********************************************************************

            Population analysis using the SCF density.

 **********************************************************************

 Orbital symmetries:
       Occupied  (A1) (A1) (E) (E) (A1)
       Virtual   (A1) (E) (E) (A1) (E) (E) (A1) (E) (E) (A1) (E)
                 (E) (E) (E) (A1) (A1) (E) (E) (A1) (A2) (E) (E)
                 (A1) (E) (E) (A1) (E) (E) (A1) (E) (E) (E) (E)
                 (A1) (A2) (E) (E) (A1) (E) (E) (E) (E) (A1) (A1)
                 (E) (E) (A1) (E) (E) (A2) (A1) (E) (E) (E) (E)
                 (A1) (E) (E) (A1)
 The electronic state is 1-A1.
 Alpha  occ. eigenvalues --  -15.54152  -1.14146  -0.62737  -0.62737  -0.43019
 Alpha virt. eigenvalues --    0.04310   0.07302   0.07302   0.17861   0.21734
 Alpha virt. eigenvalues --    0.21734   0.24139   0.30237   0.30237   0.31549
 Alpha virt. eigenvalues --    0.63769   0.63769   0.73396   0.73396   0.79391
 Alpha virt. eigenvalues --    0.82916   0.88238   0.88238   1.05474   1.09965
 Alpha virt. eigenvalues --    1.19685   1.19685   1.28500   1.50938   1.50938
 Alpha virt. eigenvalues --    1.63224   1.77966   1.77966   1.87610   2.04696
 Alpha virt. eigenvalues --    2.04696   2.82532   2.82532   2.90354   3.64344
 Alpha virt. eigenvalues --    3.73814   3.73814   3.89744   3.91859   3.91859
 Alpha virt. eigenvalues --    4.10039   4.10039   4.23029   4.45326   4.75724
 Alpha virt. eigenvalues --    4.75724   4.82935   5.09736   5.09736   5.12472
 Alpha virt. eigenvalues --    5.43389   5.53687   5.53687   5.86277   5.86277
 Alpha virt. eigenvalues --    6.00553   6.93456   6.93456  37.11440
          Condensed to atoms (all electrons):
               1          2          3          4
     1  N    6.261119   0.399442   0.399442   0.399442
     2  H    0.399442   0.517817  -0.035203  -0.035203
     3  H    0.399442  -0.035203   0.517817  -0.035203
     4  H    0.399442  -0.035203  -0.035203   0.517817
 Mulliken charges:
               1
     1  N   -0.459444
     2  H    0.153148
     3  H    0.153148
     4  H    0.153148
 Sum of Mulliken charges =  -0.00000
 Mulliken charges with hydrogens summed into heavy atoms:
               1
     1  N   -0.000000
 Electronic spatial extent (au):  <R**2>=             26.7462
 Charge=             -0.0000 electrons
 Dipole moment (field-independent basis, Debye):
    X=             -0.0000    Y=              0.0000    Z=             -1.6941  Tot=              1.6941
 Quadrupole moment (field-independent basis, Debye-Ang):
   XX=             -6.2219   YY=             -6.2219   ZZ=             -9.3073
   XY=             -0.0000   XZ=              0.0000   YZ=              0.0000
 Traceless Quadrupole moment (field-independent basis, Debye-Ang):
   XX=              1.0285   YY=              1.0285   ZZ=             -2.0570
   XY=             -0.0000   XZ=              0.0000   YZ=              0.0000
 Octapole moment (field-independent basis, Debye-Ang**2):
  XXX=             -0.0000  YYY=              0.9737  ZZZ=             -1.6092  XYY=              0.0000
  XXY=             -0.9737  XXZ=             -0.9604  XZZ=              0.0000  YZZ=              0.0000
  YYZ=             -0.9604  XYZ=              0.0000
 Hexadecapole moment (field-independent basis, Debye-Ang**3):
 XXXX=             -9.9583 YYYY=             -9.9583 ZZZZ=            -12.5967 XXXY=              0.0000
 XXXZ=              0.0000 YYYX=              0.0000 YYYZ=             -0.3876 ZZZX=             -0.0000
 ZZZY=             -0.0000 XXYY=             -3.3194 XXZZ=             -3.8562 YYZZ=             -3.8562
 XXYZ=              0.3876 YYXZ=             -0.0000 ZZXY=              0.0000
 N-N= 1.191561700919D+01 E-N=-1.556705286430D+02  KE= 5.613964259051D+01
 Symmetry A'   KE= 5.353323979789D+01
 Symmetry A"   KE= 2.606402792619D+00

 Test job not archived.
 1\1\GINC-SMP-N33\SP\RMP2-FC\CBSB3\H3N1\ANT212\17-Apr-2023\0\\#N Geom=A
 llCheck Guess=TCheck SCRF=Check Test MP2/CBSB3 CBSExtrap=(NMin=10,MinP
 op)\\NH3\\0,1\N,0,-0.7943371188,0.1048222169,0.\H,0,-0.4082251015,-0.8
 347151184,-0.0000001222\H,0,-0.4082081249,0.5745838017,0.8136592332\H,
 0,-0.4082081249,0.5745840134,-0.8136591109\\Version=ES64L-G16RevA.03\S
 tate=1-A1\HF=-56.2177478\MP2=-56.448209\E2(CBS)=-0.253751\CBS-Int=-0.2
 457749\OIii=2.196243\RMSD=1.468e-09\PG=C03V [C3(N1),3SGV(H1)]\\@


 REALITY IS FOR PEOPLE WHO CAN'T FACE SCIENCE FICTION.
 Diagonal vibrational polarizability:
        0.0000000       0.0000000       0.0000000

 Complete Basis Set (CBS) Extrapolation:
 M. R. Nyden and G. A. Petersson, JCP 75, 1843 (1981)
 G. A. Petersson and M. A. Al-Laham, JCP 94, 6081 (1991)
 G. A. Petersson, T. Tensfeldt, and J. A. Montgomery, JCP 94, 6091 (1991)
 J. A. Montgomery, J. W. Ochterski, and G. A. Petersson, JCP 101, 5900 (1994)

 Temperature=               298.150000 Pressure=                       1.000000
 E(ZPE)=                      0.033957 E(Thermal)=                     0.036824
 E(SCF)=                    -56.217748 DE(MP2)=                       -0.230461
 DE(CBS)=                    -0.023290 DE(MP34)=                      -0.014272
 DE(CCSD)=                   -0.003632 DE(Int)=                        0.007976
 DE(Empirical)=              -0.012716
 CBS-QB3 (0 K)=             -56.460185 CBS-QB3 Energy=               -56.457319
 CBS-QB3 Enthalpy=          -56.456374 CBS-QB3 Free Energy=          -56.478219

 Test job not archived.
 1\1\GINC-SMP-N33\Mixed\CBS-QB3\CBS-QB3\H3N1\ANT212\17-Apr-2023\0\\# cb
 s-qb3 scf=(xqc,maxcycle=999) geom=connectivity opt=maxcycle=999 iop(1/
 152=999,1/7=10) freq\\NH3\\0,1\N,0,-0.7943371188,0.1048222169,0.\H,0,-
 0.4082251015,-0.8347151184,-0.0000001222\H,0,-0.4082081249,0.574583801
 7,0.8136592332\H,0,-0.4082081249,0.5745840134,-0.8136591109\\Version=E
 S64L-G16RevA.03\State=1-A1\HF/CbsB3=-56.2177478\E2(CBS)/CbsB3=-0.25375
 1\CBS-Int/CbsB3=0.0079761\OIii/CbsB3=2.196243\MP2/CbsB4=-56.394751\MP4
 (SDQ)/CbsB4=-56.4090228\MP4(SDQ)/6-31+G(d')=-56.3761512\QCISD(T)/6-31+
 G(d')=-56.379783\CBSQB3=-56.4601851\FreqCoord=-1.5010796051,0.19808528
 17,0.,-0.771433639,-1.5773829658,-0.000000231,-0.7714015578,1.08580602
 08,1.5375931094,-0.7714015578,1.085806421,-1.5375928784\PG=C03V [C3(N1
 ),3SGV(H1)]\NImag=0\\0.21996600,0.00000487,0.63353555,0.,0.,0.63353575
 ,-0.07331850,0.17357178,0.00000002,0.07199484,0.11711227,-0.36210706,-
 0.00000004,-0.13824323,0.39769978,0.00000002,-0.00000004,-0.06025351,-
 0.00000002,0.00000004,0.05930354,-0.07332375,-0.08678833,-0.15032219,0
 .00066183,0.01056550,0.01429615,0.07199984,-0.05855859,-0.13571422,-0.
 13070310,-0.01766427,-0.01779638,-0.03396413,0.06912443,0.14390006,-0.
 10142677,-0.13070362,-0.28664112,-0.00200188,0.00231685,0.00047501,0.1
 1972732,0.14652697,0.31309826,-0.07332375,-0.08678837,0.15032217,0.000
 66183,0.01056550,-0.01429615,0.00066209,0.00709843,-0.01629868,0.07199
 984,-0.05855861,-0.13571429,0.13070314,-0.01766427,-0.01779639,0.03396
 413,0.00709843,0.00961058,-0.01814019,0.06912446,0.14390014,0.10142676
 ,0.13070366,-0.28664105,0.00200187,-0.00231685,0.00047501,0.01629868,0
 .01814020,-0.02693221,-0.11972730,-0.14652701,0.31309818\\-0.00000107,
 0.,0.,0.00000036,-0.00000283,0.,0.00000036,0.00000142,0.00000245,0.000
 00036,0.00000142,-0.00000245\\\@
 Job cpu time:       0 days  0 hours  0 minutes  4.8 seconds.
 Elapsed time:       0 days  0 hours  0 minutes  1.4 seconds.
 File lengths (MBytes):  RWF=     19 Int=      0 D2E=      0 Chk=      2 Scr=      1
 Normal termination of Gaussian 16 at Mon Apr 17 14:40:04 2023.
==============================================================================
                                JOB STATISTICS                                
==============================================================================

           JobId: 8375307
      SubmitTime: 2023-04-17T14:39:48
         EndTime: 2023-04-17T15:38:49
         RunTime: 00:00:18
            TRES: cpu=4,mem=12G,node=1,billing=3
       Partition: smp
        NodeList: smp-n33
         Command: /ihome/gmpourmpakis/ant212/NH3.slurm

==============================================================================
 For more information use the command:
   - `sacct -M smp -j 8375307 -S 2023-04-17T14:39:48 -E 2023-04-17T15:38:49`

 To control the output of the above command:
   - Add `--format=<field1,field2,etc>` with fields of interest
   - See the list of all possible fields by running: `sacct --helpformat`
==============================================================================
CPU op-mode(s):        32-bit, 64-bit
CPU(s):                24
On-line CPU(s) list:   0-23
CPU family:            6
Model name:            Intel(R) Xeon(R) Gold 6126 CPU @ 2.60GHz
CPU MHz:               2903.100
CPU max MHz:           3700.0000
CPU min MHz:           1000.0000
NUMA node0 CPU(s):     0-11
NUMA node1 CPU(s):     12-23
